                         Program Version 6.0.0  -   RELEASE   -
|  1> ! RI BP86 def2-SVP D3BJ TIGHTSCF Opt
|  2> %pal
|  3> nprocs 6
|  4> end
|  5>
|  6> * xyz 0 1
|  7> C      3.054847   -2.011051    3.202529
|  8> C      2.376511   -1.747678    1.870531
|  9> O      2.510350   -0.363107    1.567473
| 10> Si     1.910881    0.194469    0.111630
| 11> C      0.023695    0.004218    0.040325
| 12> C     -0.726216    0.610434    1.225227
| 13> P     -2.566003    0.526060    1.181937
| 14> C     -2.876405   -1.228397    0.816214
| 15> C     -2.856534   -1.769853   -0.476649
| 16> C     -3.089940   -3.132499   -0.689562
| 17> C     -3.344159   -3.976705    0.387485
| 18> C     -3.366762   -3.458456    1.678191
| 19> C     -3.133618   -2.095727    1.889708
| 20> C     -3.104283    1.439993   -0.294192
| 21> C     -4.385902    1.208554   -0.822842
| 22> C     -4.856896    1.921476   -1.932041
| 23> C     -4.058399    2.895762   -2.522639
| 24> C     -2.795905    3.159684   -2.000531
| 25> C     -2.326745    2.442498   -0.892852
| 26> O      2.613601   -0.703382   -1.109455
| 27> C      3.999123   -0.515175   -1.377368
| 28> C      4.406062   -1.483146   -2.474416
| 29> O      2.376924    1.781011   -0.099217
| 30> C      2.460161    2.660481    1.013268
| 31> C      3.175989    3.923779    0.560510
| 32> H      4.116082   -1.741406    3.155512
| 33> H      2.969529   -3.064979    3.479067
| 34> H      2.603816   -1.402223    3.992520
| 35> H      1.316716   -2.022613    1.945789
| 36> H      2.852753   -2.363050    1.098418
| 37> H     -0.165818   -1.073936   -0.012877
| 38> H     -0.314203    0.431705   -0.909918
| 39> H     -0.407301    0.105763    2.147713
| 40> H     -0.450110    1.662003    1.358511
| 41> H     -2.647269   -1.139895   -1.340522
| 42> H     -3.067123   -3.531400   -1.700113
| 43> H     -3.526066   -5.034957    0.222042
| 44> H     -3.567483   -4.112764    2.525626
| 45> H     -3.158181   -1.717410    2.911079
| 46> H     -5.042509    0.464888   -0.371527
| 47> H     -5.847412    1.716378   -2.326042
| 48> H     -4.421858    3.456057   -3.379660
| 49> H     -2.169857    3.926745   -2.451270
| 50> H     -1.338859    2.694458   -0.510147
| 51> H      4.598322   -0.717418   -0.479462
| 52> H      4.189405    0.512107   -1.715692
| 53> H      4.198140   -2.516928   -2.176036
| 54> H      5.473799   -1.386341   -2.701222
| 55> H      3.830645   -1.290654   -3.387959
| 56> H      1.453726    2.927286    1.359585
| 57> H      3.018117    2.211459    1.845065
| 58> H      2.643785    4.397749   -0.273424
| 59> H      4.183122    3.684132    0.202924
| 60> H      3.255715    4.642001    1.381167
| 61> **                         ****END OF INPUT****
 Total Charge           Charge          ....    0
 Multiplicity           Mult            ....    1
 Number of Electrons    NEL             ....  202
Dispersion correction           -0.110675910
FINAL SINGLE POINT ENERGY     -1635.459031251705
Dispersion correction             ... done (  0.1 sec)
Dispersion correction           -0.111193735
FINAL SINGLE POINT ENERGY     -1635.468773995656
Dispersion correction             ... done (  0.1 sec)
Dispersion correction           -0.111295075
FINAL SINGLE POINT ENERGY     -1635.470724680948
Dispersion correction             ... done (  0.1 sec)
FINAL SINGLE POINT ENERGY     -1635.470030067253
FINAL SINGLE POINT ENERGY     -1635.471838312056
FINAL SINGLE POINT ENERGY     -1635.471950403051
FINAL SINGLE POINT ENERGY     -1635.472115519553
FINAL SINGLE POINT ENERGY     -1635.472219381855
FINAL SINGLE POINT ENERGY     -1635.472275853320
FINAL SINGLE POINT ENERGY     -1635.472329339128
FINAL SINGLE POINT ENERGY     -1635.474537282077
FINAL SINGLE POINT ENERGY     -1635.474648654336
FINAL SINGLE POINT ENERGY     -1635.474673031999
FINAL SINGLE POINT ENERGY     -1635.474719432615
FINAL SINGLE POINT ENERGY     -1635.474747420748
FINAL SINGLE POINT ENERGY     -1635.474756098667
FINAL SINGLE POINT ENERGY     -1635.474758911523
Dispersion correction             ... done (  0.1 sec)
Dispersion correction           -0.113750291
FINAL SINGLE POINT ENERGY     -1635.474760553610
Dispersion correction             ... done (  0.1 sec)
Dispersion correction           -0.113752044
FINAL SINGLE POINT ENERGY     -1635.474761244340
Dispersion correction             ... done (  0.1 sec)
                    ***********************HURRAY********************

CARTESIAN COORDINATES (ANGSTROEM)
---------------------------------
  C      3.508392   -1.013045    3.532981
  C      2.678201   -1.228366    2.277060
  O      2.468607    0.025274    1.630368
  Si     1.596182    0.185036    0.202193
  C     -0.138655   -0.485593    0.312494
  C     -0.898259    0.164821    1.482315
  P     -2.772039    0.255764    1.360103
  C     -3.113253   -1.443076    0.698424
  C     -3.133292   -1.774356   -0.673377
  C     -3.343495   -3.101298   -1.081753
  C     -3.529876   -4.115851   -0.127481
  C     -3.514535   -3.796165    1.241009
  C     -3.317337   -2.467546    1.649297
  C     -2.995643    1.295229   -0.151383
  C     -4.297366    1.366609   -0.702775
  C     -4.568654    2.187396   -1.806181
  C     -3.545811    2.969520   -2.372319
  C     -2.254564    2.918152   -1.825185
  C     -1.976372    2.088731   -0.724356
  O      2.349803   -0.581551   -1.073301
  C      3.644434   -0.236681   -1.568257
  C      4.012745   -1.178763   -2.704064
  O      1.515221    1.837704   -0.046012
  C      2.101607    2.852664    0.771735
  C      3.593381    3.015271    0.507148
  H      4.492159   -0.570160    3.277488
  H      3.682108   -1.973168    4.060189
  H      2.990177   -0.320212    4.226181
  H      1.699281   -1.695928    2.541005
  H      3.194436   -1.936827    1.587432
  H     -0.152847   -1.591336    0.392622
  H     -0.621657   -0.256012   -0.661418
  H     -0.680846   -0.361126    2.434976
  H     -0.577812    1.216152    1.652213
  H     -2.985231   -0.985789   -1.426375
  H     -3.356484   -3.345434   -2.155498
  H     -3.693884   -5.155445   -0.450546
  H     -3.669339   -4.584119    1.994471
  H     -3.324485   -2.214768    2.722543
  H     -5.107257    0.763272   -0.261074
  H     -5.586956    2.221856   -2.223750
  H     -3.757616    3.617513   -3.236659
  H     -1.443786    3.522570   -2.260711
  H     -0.946331    2.063763   -0.338366
  H      4.399199   -0.302054   -0.749727
  H      3.643415    0.819641   -1.922877
  H      4.030897   -2.229394   -2.350371
  H      5.012815   -0.928335   -3.113082
  H      3.269712   -1.106343   -3.523553
  H      1.560365    3.795511    0.541356
  H      1.932926    2.623937    1.847822
  H      3.782983    3.225654   -0.565150
  H      4.137692    2.092093    0.790613
  H      4.006947    3.854610    1.103977

 Multiplicity           Mult            ....    1
 Number of Electrons    NEL             ....  202
 Basis Dimension        Dim             ....  503

ORBITAL ENERGIES
----------------

  NO   OCC          E(Eh)            E(eV)
   0   2.0000     -76.338170     -2077.2672
   1   2.0000     -65.502449     -1782.4122
   2   2.0000     -18.774878      -510.8904
   3   2.0000     -18.772686      -510.8307
   4   2.0000     -18.771557      -510.8000
   5   2.0000      -9.968841      -271.2660
   6   2.0000      -9.963669      -271.1252
   7   2.0000      -9.962988      -271.1067
   8   2.0000      -9.925117      -270.0762
   9   2.0000      -9.922553      -270.0064
  10   2.0000      -9.921491      -269.9775
  11   2.0000      -9.921212      -269.9699
  12   2.0000      -9.920897      -269.9613
  13   2.0000      -9.920674      -269.9553
  14   2.0000      -9.919879      -269.9336
  15   2.0000      -9.918931      -269.9078
  16   2.0000      -9.918264      -269.8897
  17   2.0000      -9.917579      -269.8710
  18   2.0000      -9.916601      -269.8444
  19   2.0000      -9.916111      -269.8311
  20   2.0000      -9.915172      -269.8056
  21   2.0000      -9.912180      -269.7241
  22   2.0000      -9.908092      -269.6129
  23   2.0000      -9.907943      -269.6088
  24   2.0000      -9.904337      -269.5107
  25   2.0000      -6.307156      -171.6264
  26   2.0000      -5.102015      -138.8329
  27   2.0000      -4.528709      -123.2324
  28   2.0000      -4.528426      -123.2247
  29   2.0000      -4.524997      -123.1314
  30   2.0000      -3.518614       -95.7464
  31   2.0000      -3.518129       -95.7331
  32   2.0000      -3.514413       -95.6320
  33   2.0000      -0.924636       -25.1606
  34   2.0000      -0.900716       -24.5097
  35   2.0000      -0.898734       -24.4558
  36   2.0000      -0.772156       -21.0114
  37   2.0000      -0.765537       -20.8313
  38   2.0000      -0.704189       -19.1620
  39   2.0000      -0.679287       -18.4843
  40   2.0000      -0.671537       -18.2734
  41   2.0000      -0.668906       -18.2019
  42   2.0000      -0.668218       -18.1831
  43   2.0000      -0.666233       -18.1291
  44   2.0000      -0.662373       -18.0241
  45   2.0000      -0.661984       -18.0135
  46   2.0000      -0.588424       -16.0118
  47   2.0000      -0.560908       -15.2631
  48   2.0000      -0.550095       -14.9688
  49   2.0000      -0.546777       -14.8786
  50   2.0000      -0.542909       -14.7733
  51   2.0000      -0.538054       -14.6412
  52   2.0000      -0.533977       -14.5303
  53   2.0000      -0.529982       -14.4215
  54   2.0000      -0.493323       -13.4240
  55   2.0000      -0.480067       -13.0633
  56   2.0000      -0.462349       -12.5812
  57   2.0000      -0.448470       -12.2035
  58   2.0000      -0.444413       -12.0931
  59   2.0000      -0.439348       -11.9553
  60   2.0000      -0.423674       -11.5288
  61   2.0000      -0.414350       -11.2750
  62   2.0000      -0.414148       -11.2695
  63   2.0000      -0.407950       -11.1009
  64   2.0000      -0.404741       -11.0136
  65   2.0000      -0.398046       -10.8314
  66   2.0000      -0.396084       -10.7780
  67   2.0000      -0.390563       -10.6278
  68   2.0000      -0.381754       -10.3881
  69   2.0000      -0.374192       -10.1823
  70   2.0000      -0.372423       -10.1341
  71   2.0000      -0.368654       -10.0316
  72   2.0000      -0.367251        -9.9934
  73   2.0000      -0.359749        -9.7893
  74   2.0000      -0.358324        -9.7505
  75   2.0000      -0.347828        -9.4649
  76   2.0000      -0.342390        -9.3169
  77   2.0000      -0.337595        -9.1864
  78   2.0000      -0.335344        -9.1252
  79   2.0000      -0.330100        -8.9825
  80   2.0000      -0.328772        -8.9463
  81   2.0000      -0.327485        -8.9113
  82   2.0000      -0.325401        -8.8546
  83   2.0000      -0.321843        -8.7578
  84   2.0000      -0.317425        -8.6376
  85   2.0000      -0.309403        -8.4193
  86   2.0000      -0.302438        -8.2298
  87   2.0000      -0.300012        -8.1637
  88   2.0000      -0.286075        -7.7845
  89   2.0000      -0.280803        -7.6410
  90   2.0000      -0.276701        -7.5294
  91   2.0000      -0.260430        -7.0867
  92   2.0000      -0.256104        -6.9690
  93   2.0000      -0.246003        -6.6941
  94   2.0000      -0.242738        -6.6052
  95   2.0000      -0.237090        -6.4516
  96   2.0000      -0.233686        -6.3589
  97   2.0000      -0.232520        -6.3272
  98   2.0000      -0.229924        -6.2565
  99   2.0000      -0.226607        -6.1663
 100   2.0000      -0.188080        -5.1179
 101   0.0000      -0.053301        -1.4504
 102   0.0000      -0.048277        -1.3137
 103   0.0000      -0.043873        -1.1938
 104   0.0000      -0.036494        -0.9930
 105   0.0000       0.017920         0.4876

MULLIKEN ATOMIC CHARGES
-----------------------
   0 C :   -0.062467
   1 C :    0.126723
   2 O :   -0.455692
   3 Si:    0.774169
   4 C :   -0.192546
   5 C :   -0.185285
   6 P :    0.235871
   7 C :   -0.129710
   8 C :   -0.004253
   9 C :    0.002898
  10 C :    0.001699
  11 C :   -0.000579
  12 C :    0.003256
  13 C :   -0.125211
  14 C :   -0.005437
  15 C :   -0.000026
  16 C :   -0.000688
  17 C :    0.002680
  18 C :   -0.025062
  19 O :   -0.426156
  20 C :    0.128053
  21 C :   -0.057587
  22 O :   -0.452152
  23 C :    0.152850
  24 C :   -0.092208
  25 H :    0.040076
  26 H :    0.030150
  27 H :    0.040593
  28 H :    0.020702
  29 H :    0.026748
  30 H :    0.068386
  31 H :    0.072358
  32 H :    0.059070
  33 H :    0.072162
  34 H :    0.023692
  35 H :    0.002198
  36 H :    0.003564
  37 H :    0.002661
  38 H :   -0.000771
  39 H :    0.003111
  40 H :    0.002281
  41 H :    0.001507
  42 H :    0.000820
  43 H :   -0.003154
  44 H :    0.022659
  45 H :    0.027026
  46 H :    0.037560
  47 H :    0.027130
  48 H :    0.041848
  49 H :    0.023156
  50 H :    0.027010
  51 H :    0.041738
  52 H :    0.042612
  53 H :    0.029967
Sum of atomic charges:   -0.0000000

LOEWDIN ATOMIC CHARGES
----------------------
   0 C :   -0.083959
   1 C :    0.062304
   2 O :   -0.247636
   3 Si:    0.565601
   4 C :   -0.221307
   5 C :   -0.184512
   6 P :    0.481995
   7 C :   -0.169524
   8 C :   -0.033577
   9 C :   -0.030839
  10 C :   -0.031250
  11 C :   -0.033248
  12 C :   -0.039999
  13 C :   -0.176608
  14 C :   -0.036378
  15 C :   -0.032887
  16 C :   -0.034719
  17 C :   -0.029065
  18 C :   -0.043785
  19 O :   -0.237972
  20 C :    0.063985
  21 C :   -0.083901
  22 O :   -0.240511
  23 C :    0.066409
  24 C :   -0.092337
  25 H :    0.031824
  26 H :    0.033997
  27 H :    0.032400
  28 H :    0.011653
  29 H :    0.013736
  30 H :    0.045644
  31 H :    0.045896
  32 H :    0.033303
  33 H :    0.030924
  34 H :    0.033990
  35 H :    0.033053
  36 H :    0.032299
  37 H :    0.032553
  38 H :    0.027940
  39 H :    0.030803
  40 H :    0.032586
  41 H :    0.031562
  42 H :    0.033331
  43 H :    0.028141
  44 H :    0.011146
  45 H :    0.014449
  46 H :    0.031201
  47 H :    0.032993
  48 H :    0.033330
  49 H :    0.019743
  50 H :    0.013399
  51 H :    0.028882
  52 H :    0.028476
  53 H :    0.034467

  Mayer bond orders larger than 0.100000
B(  0-C ,  1-C ) :   1.1174 B(  0-C , 25-H ) :   0.9661 B(  0-C , 26-H ) :   0.9531
B(  0-C , 27-H ) :   0.9648 B(  1-C ,  2-O ) :   0.9737 B(  1-C , 28-H ) :   0.9352
B(  1-C , 29-H ) :   0.9336 B(  2-O ,  3-Si) :   1.0509 B(  3-Si,  4-C ) :   0.9629
B(  3-Si, 19-O ) :   1.1593 B(  3-Si, 22-O ) :   1.0585 B(  4-C ,  5-C ) :   1.0102
B(  4-C , 30-H ) :   0.9209 B(  4-C , 31-H ) :   0.9177 B(  5-C ,  6-P ) :   0.9724
B(  5-C , 32-H ) :   0.9362 B(  5-C , 33-H ) :   0.9193 B(  6-P ,  7-C ) :   0.9354
B(  6-P , 13-C ) :   0.9247 B(  7-C ,  8-C ) :   1.3824 B(  7-C , 12-C ) :   1.3684
B(  8-C ,  9-C ) :   1.3919 B(  8-C , 34-H ) :   0.9597 B(  9-C , 10-C ) :   1.3771
B(  9-C , 35-H ) :   0.9739 B( 10-C , 11-C ) :   1.3794 B( 10-C , 36-H ) :   0.9756
B( 11-C , 12-C ) :   1.3974 B( 11-C , 37-H ) :   0.9756 B( 12-C , 38-H ) :   0.9700
B( 13-C , 14-C ) :   1.3489 B( 13-C , 18-C ) :   1.3703 B( 14-C , 15-C ) :   1.4172
B( 14-C , 39-H ) :   0.9712 B( 15-C , 16-C ) :   1.3658 B( 15-C , 40-H ) :   0.9755
B( 16-C , 17-C ) :   1.3810 B( 16-C , 41-H ) :   0.9760 B( 17-C , 18-C ) :   1.3997
B( 17-C , 42-H ) :   0.9736 B( 18-C , 43-H ) :   0.9564 B( 19-O , 20-C ) :   0.9545
B( 20-C , 21-C ) :   1.1177 B( 20-C , 44-H ) :   0.9371 B( 20-C , 45-H ) :   0.9370
B( 21-C , 46-H ) :   0.9655 B( 21-C , 47-H ) :   0.9526 B( 21-C , 48-H ) :   0.9646
B( 22-O , 23-C ) :   0.9570 B( 23-C , 24-C ) :   1.1220 B( 23-C , 49-H ) :   0.9447
B( 23-C , 50-H ) :   0.9340 B( 24-C , 51-H ) :   0.9598 B( 24-C , 52-H ) :   0.9583
B( 24-C , 53-H ) :   0.9512

Dispersion correction           -0.113763815
FINAL SINGLE POINT ENERGY     -1635.474761740501

DIPOLE MOMENT
-------------

Method             : SCF
Type of density    : Electron Density
Multiplicity       :   1
Irrep              :   0
Energy             : -1635.3609979256125371 Eh
Relativity type    :
Basis              : AO
                                X                 Y                 Z
Electronic contribution:    -28.932066318       0.312805261       0.649833623
Nuclear contribution   :     29.784923166      -0.679700548      -0.655255563
                        -----------------------------------------
Total Dipole Moment    :      0.852856848      -0.366895287      -0.005421941
                        -----------------------------------------
Magnitude (a.u.)       :      0.928442972
Magnitude (Debye)      :      2.359914490

Rotational constants in cm-1:             0.007401             0.004223             0.003468
Rotational constants in MHz :           221.876560           126.604441           103.958810

                             ****ORCA TERMINATED NORMALLY****
TOTAL RUN TIME: 0 days 0 hours 13 minutes 35 seconds 827 msec
