                         Program Version 6.0.0  -   RELEASE   -
|  1> ! RIJONX B3LYP def2-SVP D3BJ TIGHTSCF Opt
|  2> %pal
|  3> nprocs 6
|  4> end
|  5>
|  6> * xyz 0 1
|  7> C     -1.279596    4.723808    1.550721
|  8> C     -0.356288    3.920945    2.216479
|  9> C      0.306080    2.901389    1.530687
| 10> C      0.046140    2.663062    0.169986
| 11> C     -0.877151    3.491291   -0.489178
| 12> C     -1.538649    4.510897    0.198465
| 13> C      0.778650    1.581586   -0.583351
| 14> P      0.002994    0.010120   -0.057405
| 15> C      0.938399   -1.197124   -1.065049
| 16> C      2.293548   -1.301089   -0.412026
| 17> C      2.472319   -2.035958    0.772831
| 18> C      3.734065   -2.150285    1.358885
| 19> C      4.836936   -1.541495    0.764434
| 20> C      4.680342   -0.821470   -0.417969
| 21> C      3.418846   -0.705834   -1.005577
| 22> C     -1.580587    0.077536   -0.971457
| 23> C     -2.294029   -1.207413   -0.634436
| 24> C     -2.381608   -2.243451   -1.578831
| 25> C     -3.063578   -3.424929   -1.280406
| 26> C     -3.675897   -3.583683   -0.039077
| 27> C     -3.611082   -2.560563    0.903973
| 28> C     -2.930004   -1.378748    0.607359
| 29> H     -1.795133    5.516860    2.085531
| 30> H     -0.150224    4.086557    3.270521
| 31> H      1.026031    2.282886    2.063997
| 32> H     -1.088975    3.345821   -1.545862
| 33> H     -2.255331    5.140590   -0.322021
| 34> H      0.706753    1.732523   -1.665842
| 35> H      1.840124    1.629838   -0.320524
| 36> H      1.023848   -0.880503   -2.110127
| 37> H      0.473198   -2.187943   -1.064977
| 38> H      1.619927   -2.518350    1.248249
| 39> H      3.853774   -2.714842    2.279668
| 40> H      5.818634   -1.630568    1.221669
| 41> H      5.541750   -0.350763   -0.884299
| 42> H      3.319223   -0.144821   -1.931834
| 43> H     -2.206939    0.918249   -0.656785
| 44> H     -1.427080    0.175639   -2.051527
| 45> H     -1.915996   -2.137032   -2.555813
| 46> H     -3.118499   -4.221257   -2.017899
| 47> H     -4.205820   -4.503514    0.192923
| 48> H     -4.090130   -2.680570    1.871964
| 49> H     -2.888984   -0.587392    1.353930
| 50> **                         ****END OF INPUT****
 Total Charge           Charge          ....    0
 Multiplicity           Mult            ....    1
 Number of Electrons    NEL             ....  162
Dispersion correction           -0.101289878
FINAL SINGLE POINT ENERGY     -1153.073252041505
Dispersion correction             ... done (  0.1 sec)
Dispersion correction           -0.100485699
FINAL SINGLE POINT ENERGY     -1153.080326778746
Dispersion correction             ... done (  0.1 sec)
Dispersion correction           -0.100067177
FINAL SINGLE POINT ENERGY     -1153.082868574329
Dispersion correction             ... done (  0.1 sec)
FINAL SINGLE POINT ENERGY     -1153.083243524272
FINAL SINGLE POINT ENERGY     -1153.083306068394
Dispersion correction             ... done (  0.1 sec)
Dispersion correction           -0.100082034
FINAL SINGLE POINT ENERGY     -1153.083319935295
Dispersion correction             ... done (  0.1 sec)
Dispersion correction           -0.100093010
FINAL SINGLE POINT ENERGY     -1153.083321838504
Dispersion correction             ... done (  0.1 sec)
                    ***********************HURRAY********************

CARTESIAN COORDINATES (ANGSTROEM)
---------------------------------
  C     -1.313763    4.949037    1.345412
  C     -0.482070    4.175343    2.161878
  C      0.205632    3.082884    1.630676
  C      0.081282    2.744075    0.272476
  C     -0.759276    3.525975   -0.534889
  C     -1.450145    4.620017   -0.005561
  C      0.788069    1.537100   -0.283117
  P     -0.017367   -0.054173    0.311652
  C      0.916575   -1.277356   -0.768589
  C      2.353388   -1.397617   -0.337334
  C      2.688351   -2.061551    0.855116
  C      4.014813   -2.139451    1.282854
  C      5.034196   -1.549130    0.528321
  C      4.714201   -0.881625   -0.656614
  C      3.384945   -0.806250   -1.082940
  C     -1.617350    0.042115   -0.671633
  C     -2.402815   -1.236703   -0.559152
  C     -2.456227   -2.149356   -1.624031
  C     -3.149521   -3.357103   -1.501336
  C     -3.800301   -3.674313   -0.306404
  C     -3.751268   -2.775029    0.764041
  C     -3.057234   -1.570369    0.638895
  H     -1.852134    5.804464    1.761076
  H     -0.368795    4.424767    3.220194
  H      0.847347    2.476108    2.275430
  H     -0.869597    3.274613   -1.593594
  H     -2.096639    5.218129   -0.653119
  H      0.801516    1.559999   -1.385585
  H      1.834340    1.497783    0.060473
  H      0.845806   -0.973056   -1.826232
  H      0.390788   -2.240268   -0.665669
  H      1.894292   -2.516959    1.453233
  H      4.255148   -2.664132    2.211301
  H      6.072821   -1.610292    0.862820
  H      5.502741   -0.417541   -1.254840
  H      3.141612   -0.283459   -2.012323
  H     -2.182208    0.892027   -0.255906
  H     -1.394085    0.276596   -1.725828
  H     -1.949963   -1.906636   -2.562642
  H     -3.182005   -4.051959   -2.344642
  H     -4.343903   -4.617352   -0.208765
  H     -4.257149   -3.014253    1.703152
  H     -3.014044   -0.875096    1.481745

 Multiplicity           Mult            ....    1
 Number of Electrons    NEL             ....  162
 Basis Dimension        Dim             ....  417

ORBITAL ENERGIES
----------------

  NO   OCC          E(Eh)            E(eV)
   0   2.0000     -77.044487     -2096.4871
   1   2.0000     -10.195898      -277.4445
   2   2.0000     -10.195882      -277.4440
   3   2.0000     -10.195864      -277.4436
   4   2.0000     -10.189144      -277.2607
   5   2.0000     -10.189119      -277.2600
   6   2.0000     -10.189062      -277.2585
   7   2.0000     -10.187664      -277.2204
   8   2.0000     -10.187627      -277.2194
   9   2.0000     -10.187611      -277.2190
  10   2.0000     -10.187054      -277.2038
  11   2.0000     -10.187010      -277.2026
  12   2.0000     -10.186989      -277.2021
  13   2.0000     -10.186164      -277.1796
  14   2.0000     -10.186131      -277.1787
  15   2.0000     -10.186105      -277.1780
  16   2.0000     -10.185486      -277.1612
  17   2.0000     -10.185472      -277.1608
  18   2.0000     -10.185443      -277.1600
  19   2.0000     -10.184246      -277.1274
  20   2.0000     -10.184217      -277.1266
  21   2.0000     -10.184212      -277.1265
  22   2.0000      -6.541410      -178.0008
  23   2.0000      -4.706764      -128.0776
  24   2.0000      -4.706763      -128.0775
  25   2.0000      -4.703541      -127.9899
  26   2.0000      -0.849093       -23.1050
  27   2.0000      -0.846217       -23.0267
  28   2.0000      -0.846202       -23.0263
  29   2.0000      -0.784449       -21.3459
  30   2.0000      -0.760913       -20.7055
  31   2.0000      -0.760907       -20.7053
  32   2.0000      -0.733618       -19.9628
  33   2.0000      -0.733593       -19.9621
  34   2.0000      -0.733569       -19.9614
  35   2.0000      -0.705695       -19.2029
  36   2.0000      -0.669211       -18.2102
  37   2.0000      -0.669186       -18.2095
  38   2.0000      -0.598499       -16.2860
  39   2.0000      -0.597519       -16.2593
  40   2.0000      -0.597506       -16.2590
  41   2.0000      -0.589732       -16.0474
  42   2.0000      -0.574382       -15.6297
  43   2.0000      -0.574366       -15.6293
  44   2.0000      -0.533322       -14.5124
  45   2.0000      -0.507034       -13.7971
  46   2.0000      -0.507012       -13.7965
  47   2.0000      -0.499019       -13.5790
  48   2.0000      -0.465027       -12.6540
  49   2.0000      -0.461285       -12.5522
  50   2.0000      -0.461276       -12.5520
  51   2.0000      -0.450977       -12.2717
  52   2.0000      -0.450974       -12.2716
  53   2.0000      -0.447602       -12.1799
  54   2.0000      -0.422695       -11.5021
  55   2.0000      -0.422669       -11.5014
  56   2.0000      -0.419000       -11.4016
  57   2.0000      -0.416993       -11.3470
  58   2.0000      -0.416977       -11.3465
  59   2.0000      -0.411437       -11.1958
  60   2.0000      -0.398213       -10.8359
  61   2.0000      -0.391070       -10.6416
  62   2.0000      -0.391025       -10.6403
  63   2.0000      -0.376938       -10.2570
  64   2.0000      -0.376894       -10.2558
  65   2.0000      -0.364411        -9.9161
  66   2.0000      -0.348703        -9.4887
  67   2.0000      -0.348678        -9.4880
  68   2.0000      -0.345266        -9.3952
  69   2.0000      -0.340027        -9.2526
  70   2.0000      -0.338059        -9.1991
  71   2.0000      -0.338057        -9.1990
  72   2.0000      -0.325049        -8.8450
  73   2.0000      -0.325044        -8.8449
  74   2.0000      -0.258831        -7.0431
  75   2.0000      -0.252779        -6.8785
  76   2.0000      -0.252757        -6.8779
  77   2.0000      -0.251463        -6.8426
  78   2.0000      -0.234614        -6.3842
  79   2.0000      -0.234592        -6.3836
  80   2.0000      -0.226384        -6.1602
  81   0.0000      -0.012839        -0.3494
  82   0.0000      -0.011219        -0.3053
  83   0.0000      -0.011198        -0.3047
  84   0.0000      -0.005509        -0.1499
  85   0.0000      -0.002888        -0.0786

MULLIKEN ATOMIC CHARGES
-----------------------
   0 C :    0.018079
   1 C :    0.022143
   2 C :    0.007084
   3 C :   -0.022859
   4 C :   -0.002078
   5 C :    0.020409
   6 C :   -0.053458
   7 P :    0.181120
   8 C :   -0.053977
   9 C :   -0.022899
  10 C :    0.007007
  11 C :    0.022241
  12 C :    0.018069
  13 C :    0.020377
  14 C :   -0.002039
  15 C :   -0.054117
  16 C :   -0.022970
  17 C :   -0.001906
  18 C :    0.020472
  19 C :    0.018092
  20 C :    0.022201
  21 C :    0.007079
  22 H :   -0.018490
  23 H :   -0.017782
  24 H :   -0.023453
  25 H :   -0.032707
  26 H :   -0.019943
  27 H :    0.009416
  28 H :    0.053575
  29 H :    0.009582
  30 H :    0.053495
  31 H :   -0.023436
  32 H :   -0.017789
  33 H :   -0.018481
  34 H :   -0.019905
  35 H :   -0.032715
  36 H :    0.053437
  37 H :    0.009586
  38 H :   -0.032811
  39 H :   -0.019903
  40 H :   -0.018496
  41 H :   -0.017783
  42 H :   -0.023470
Sum of atomic charges:   -0.0000000

LOEWDIN ATOMIC CHARGES
----------------------
   0 C :   -0.032363
   1 C :   -0.022497
   2 C :   -0.026771
   3 C :   -0.035799
   4 C :   -0.033882
   5 C :   -0.025306
   6 C :   -0.163993
   7 P :    0.488349
   8 C :   -0.164108
   9 C :   -0.035766
  10 C :   -0.026783
  11 C :   -0.022491
  12 C :   -0.032368
  13 C :   -0.025316
  14 C :   -0.033858
  15 C :   -0.164069
  16 C :   -0.035772
  17 C :   -0.033812
  18 C :   -0.025302
  19 C :   -0.032354
  20 C :   -0.022492
  21 C :   -0.026771
  22 H :    0.025651
  23 H :    0.026821
  24 H :    0.025830
  25 H :    0.021542
  26 H :    0.026271
  27 H :    0.017407
  28 H :    0.034300
  29 H :    0.017439
  30 H :    0.034297
  31 H :    0.025848
  32 H :    0.026821
  33 H :    0.025654
  34 H :    0.026282
  35 H :    0.021543
  36 H :    0.034271
  37 H :    0.017427
  38 H :    0.021521
  39 H :    0.026281
  40 H :    0.025652
  41 H :    0.026822
  42 H :    0.025843

  Mayer bond orders larger than 0.100000
B(  0-C ,  1-C ) :   1.3761 B(  0-C ,  5-C ) :   1.3881 B(  0-C , 22-H ) :   0.9851
B(  1-C ,  2-C ) :   1.3898 B(  1-C , 23-H ) :   0.9830 B(  2-C ,  3-C ) :   1.3721
B(  2-C , 24-H ) :   0.9860 B(  3-C ,  4-C ) :   1.3928 B(  3-C ,  6-C ) :   1.0373
B(  4-C ,  5-C ) :   1.3797 B(  4-C , 25-H ) :   0.9809 B(  5-C , 26-H ) :   0.9826
B(  6-C ,  7-P ) :   0.9499 B(  6-C , 27-H ) :   0.9144 B(  6-C , 28-H ) :   0.9261
B(  7-P ,  8-C ) :   0.9498 B(  7-P , 15-C ) :   0.9499 B(  8-C ,  9-C ) :   1.0373
B(  8-C , 29-H ) :   0.9144 B(  8-C , 30-H ) :   0.9261 B(  9-C , 10-C ) :   1.3723
B(  9-C , 14-C ) :   1.3926 B( 10-C , 11-C ) :   1.3896 B( 10-C , 31-H ) :   0.9860
B( 11-C , 12-C ) :   1.3761 B( 11-C , 32-H ) :   0.9830 B( 12-C , 13-C ) :   1.3881
B( 12-C , 33-H ) :   0.9851 B( 13-C , 14-C ) :   1.3797 B( 13-C , 34-H ) :   0.9826
B( 14-C , 35-H ) :   0.9809 B( 15-C , 16-C ) :   1.0375 B( 15-C , 36-H ) :   0.9261
B( 15-C , 37-H ) :   0.9144 B( 16-C , 17-C ) :   1.3927 B( 16-C , 21-C ) :   1.3723
B( 17-C , 18-C ) :   1.3796 B( 17-C , 38-H ) :   0.9810 B( 18-C , 19-C ) :   1.3881
B( 18-C , 39-H ) :   0.9826 B( 19-C , 20-C ) :   1.3761 B( 19-C , 40-H ) :   0.9851
B( 20-C , 21-C ) :   1.3897 B( 20-C , 41-H ) :   0.9830 B( 21-C , 42-H ) :   0.9860

Dispersion correction           -0.100103293
FINAL SINGLE POINT ENERGY     -1153.083322137999

DIPOLE MOMENT
-------------

Method             : SCF
Type of density    : Electron Density
Multiplicity       :   1
Irrep              :   0
Energy             : -1152.9832188452633090 Eh
Relativity type    :
Basis              : AO
                                X                 Y                 Z
Electronic contribution:     -0.143407672      -0.472031719       2.715009310
Nuclear contribution   :      0.158661698       0.522036779      -3.005604672
                        -----------------------------------------
Total Dipole Moment    :      0.015254026       0.050005060      -0.290595362
                        -----------------------------------------
Magnitude (a.u.)       :      0.295260657
Magnitude (Debye)      :      0.750492948

Rotational constants in cm-1:             0.007262             0.007256             0.004086
Rotational constants in MHz :           217.713283           217.521161           122.493581

                             ****ORCA TERMINATED NORMALLY****
TOTAL RUN TIME: 0 days 0 hours 7 minutes 46 seconds 924 msec
