                         Program Version 6.0.0  -   RELEASE   -
|  1> ! RIJONX B3LYP def2-SVP D3BJ TIGHTSCF Opt
|  2> %pal
|  3> nprocs 6
|  4> end
|  5>
|  6> * xyz 0 1
|  7> C     -0.354281    1.604614   -0.251965
|  8> N     -0.985615    0.761620    0.745860
|  9> C     -1.612444   -0.386852    0.118983
| 10> N     -0.630079   -1.144464   -0.633253
| 11> C      0.002039   -0.305674   -1.634120
| 12> N      0.625315    0.842619   -1.003385
| 13> C      1.799489    0.499333   -0.226224
| 14> P      1.232683   -0.572262    1.108714
| 15> C     -0.098406    0.403905    1.834625
| 16> C      0.320463   -1.841722    0.209842
| 17> H      0.100204    2.492767    0.207708
| 18> H     -1.114465    2.010864   -0.933228
| 19> H     -2.419228   -0.054364   -0.548541
| 20> H     -2.118213   -1.018622    0.861772
| 21> H     -0.744947    0.029821   -2.366577
| 22> H      0.728473   -0.875488   -2.229332
| 23> H      2.284114    1.402622    0.161093
| 24> H      2.545809   -0.000364   -0.854012
| 25> H     -0.638180   -0.160458    2.603355
| 26> H      0.285860    1.302148    2.330917
| 27> H      0.988573   -2.465211   -0.394888
| 28> H     -0.197162   -2.524831    0.892656
| 29> **                         ****END OF INPUT****
 Total Charge           Charge          ....    0
 Multiplicity           Mult            ....    1
 Number of Electrons    NEL             ....   84
Dispersion correction           -0.051682918
FINAL SINGLE POINT ENERGY      -740.756481916110
Dispersion correction             ... done (  0.1 sec)
Dispersion correction           -0.051246934
FINAL SINGLE POINT ENERGY      -740.778066078663
Dispersion correction             ... done (  0.1 sec)
Dispersion correction           -0.051012290
FINAL SINGLE POINT ENERGY      -740.787442762979
Dispersion correction             ... done (  0.1 sec)
FINAL SINGLE POINT ENERGY      -740.788394514907
FINAL SINGLE POINT ENERGY      -740.788546173426
Dispersion correction             ... done (  0.1 sec)
Dispersion correction           -0.050874325
FINAL SINGLE POINT ENERGY      -740.788601048013
Dispersion correction             ... done (  0.1 sec)
Dispersion correction           -0.050878493
FINAL SINGLE POINT ENERGY      -740.788605914744
Dispersion correction             ... done (  0.1 sec)
                    ***********************HURRAY********************

CARTESIAN COORDINATES (ANGSTROEM)
---------------------------------
  C     -0.365065    1.605964   -0.262296
  N     -1.026160    0.789164    0.757997
  C     -1.619931   -0.380935    0.107716
  N     -0.659133   -1.173964   -0.662213
  C     -0.010314   -0.298709   -1.640914
  N      0.633149    0.873187   -1.043453
  C      1.788080    0.498338   -0.228360
  P      1.375184   -0.639138    1.239142
  C     -0.102562    0.404474    1.823743
  C      0.315983   -1.832355    0.205536
  H      0.115279    2.471688    0.220861
  H     -1.136290    1.982433   -0.954464
  H     -2.405524   -0.029465   -0.581242
  H     -2.090937   -1.021406    0.870328
  H     -0.778722    0.053878   -2.348628
  H      0.738806   -0.876481   -2.205321
  H      2.271595    1.409159    0.163853
  H      2.533942   -0.010848   -0.862091
  H     -0.647829   -0.166774    2.594230
  H      0.287625    1.311121    2.316769
  H      0.991845   -2.454072   -0.406008
  H     -0.209021   -2.515255    0.894815

 Multiplicity           Mult            ....    1
 Number of Electrons    NEL             ....   84
 Basis Dimension        Dim             ....  204

ORBITAL ENERGIES
----------------

  NO   OCC          E(Eh)            E(eV)
   0   2.0000     -77.029891     -2096.0899
   1   2.0000     -14.316807      -389.5801
   2   2.0000     -14.316752      -389.5786
   3   2.0000     -14.316579      -389.5739
   4   2.0000     -10.233848      -278.4772
   5   2.0000     -10.233844      -278.4771
   6   2.0000     -10.233840      -278.4770
   7   2.0000     -10.212087      -277.8850
   8   2.0000     -10.212032      -277.8835
   9   2.0000     -10.212012      -277.8830
  10   2.0000      -6.529642      -177.6806
  11   2.0000      -4.694494      -127.7437
  12   2.0000      -4.694493      -127.7437
  13   2.0000      -4.692510      -127.6897
  14   2.0000      -0.980448       -26.6793
  15   2.0000      -0.883586       -24.0436
  16   2.0000      -0.883555       -24.0428
  17   2.0000      -0.750482       -20.4217
  18   2.0000      -0.694494       -18.8981
  19   2.0000      -0.694408       -18.8958
  20   2.0000      -0.626924       -17.0595
  21   2.0000      -0.626908       -17.0590
  22   2.0000      -0.591539       -16.0966
  23   2.0000      -0.545913       -14.8550
  24   2.0000      -0.483024       -13.1437
  25   2.0000      -0.482993       -13.1429
  26   2.0000      -0.481193       -13.0939
  27   2.0000      -0.480375       -13.0717
  28   2.0000      -0.435102       -11.8397
  29   2.0000      -0.435010       -11.8372
  30   2.0000      -0.384431       -10.4609
  31   2.0000      -0.384387       -10.4597
  32   2.0000      -0.382708       -10.4140
  33   2.0000      -0.367552       -10.0016
  34   2.0000      -0.365368        -9.9422
  35   2.0000      -0.365347        -9.9416
  36   2.0000      -0.342556        -9.3214
  37   2.0000      -0.342425        -9.3179
  38   2.0000      -0.335222        -9.1218
  39   2.0000      -0.216100        -5.8804
  40   2.0000      -0.203148        -5.5279
  41   2.0000      -0.203122        -5.5272
  42   0.0000       0.045585         1.2404
  43   0.0000       0.051934         1.4132
  44   0.0000       0.052129         1.4185
  45   0.0000       0.076624         2.0850
  46   0.0000       0.085265         2.3202

MULLIKEN ATOMIC CHARGES
-----------------------
   0 C :    0.258876
   1 N :   -0.339732
   2 C :    0.259449
   3 N :   -0.339778
   4 C :    0.258894
   5 N :   -0.339308
   6 C :   -0.002925
   7 P :    0.106561
   8 C :   -0.002400
   9 C :   -0.002178
  10 H :   -0.003942
  11 H :   -0.005030
  12 H :   -0.005290
  13 H :   -0.003855
  14 H :   -0.005097
  15 H :   -0.003885
  16 H :    0.028362
  17 H :    0.028257
  18 H :    0.028289
  19 H :    0.028249
  20 H :    0.028273
  21 H :    0.028210
Sum of atomic charges:   -0.0000000

LOEWDIN ATOMIC CHARGES
----------------------
   0 C :    0.074504
   1 N :   -0.147786
   2 C :    0.074656
   3 N :   -0.147788
   4 C :    0.074533
   5 N :   -0.147628
   6 C :   -0.110941
   7 P :    0.360298
   8 C :   -0.111117
   9 C :   -0.111061
  10 H :    0.014954
  11 H :    0.015891
  12 H :    0.015872
  13 H :    0.014934
  14 H :    0.015918
  15 H :    0.014919
  16 H :    0.016634
  17 H :    0.016656
  18 H :    0.016630
  19 H :    0.016657
  20 H :    0.016651
  21 H :    0.016614

  Mayer bond orders larger than 0.100000
B(  0-C ,  1-N ) :   1.0300 B(  0-C ,  5-N ) :   1.0302 B(  0-C , 10-H ) :   0.9415
B(  0-C , 11-H ) :   0.9394 B(  1-N ,  2-C ) :   1.0301 B(  1-N ,  8-C ) :   0.9914
B(  2-C ,  3-N ) :   1.0300 B(  2-C , 12-H ) :   0.9392 B(  2-C , 13-H ) :   0.9415
B(  3-N ,  4-C ) :   1.0302 B(  3-N ,  9-C ) :   0.9914 B(  4-C ,  5-N ) :   1.0301
B(  4-C , 14-H ) :   0.9392 B(  4-C , 15-H ) :   0.9416 B(  5-N ,  6-C ) :   0.9913
B(  6-C ,  7-P ) :   0.9482 B(  6-C , 16-H ) :   0.9469 B(  6-C , 17-H ) :   0.9469
B(  7-P ,  8-C ) :   0.9482 B(  7-P ,  9-C ) :   0.9482 B(  8-C , 18-H ) :   0.9468
B(  8-C , 19-H ) :   0.9468 B(  9-C , 20-H ) :   0.9468 B(  9-C , 21-H ) :   0.9468

Dispersion correction           -0.050880327
FINAL SINGLE POINT ENERGY      -740.788606914432

DIPOLE MOMENT
-------------

Method             : SCF
Type of density    : Electron Density
Multiplicity       :   1
Irrep              :   0
Energy             :  -740.7377265871270993 Eh
Relativity type    :
Basis              : AO
                                X                 Y                 Z
Electronic contribution:      3.269872824      -1.521407863       2.947591474
Nuclear contribution   :     -3.366535700       1.566327338      -3.033937357
                        -----------------------------------------
Total Dipole Moment    :     -0.096662875       0.044919474      -0.086345884
                        -----------------------------------------
Magnitude (a.u.)       :      0.137175371
Magnitude (Debye)      :      0.348672082

Rotational constants in cm-1:             0.055599             0.046982             0.046977
Rotational constants in MHz :          1666.815443          1408.498943          1408.331913

                             ****ORCA TERMINATED NORMALLY****
TOTAL RUN TIME: 0 days 0 hours 2 minutes 23 seconds 260 msec
