                         Program Version 6.0.0  -   RELEASE   -
|  1> ! RIJCOSX M062X def2-TZVP D3ZERO NormalSCF
|  2> %pal
|  3> nprocs 6
|  4> end
|  5>
|  6> * xyz 0 1
|  7>   C          -1.45977062261154     -2.71616638473887      0.05008224396062
|  8>   C          -1.81590791498631     -1.39368838837383     -0.63740221124301
|  9>   P          -1.19221325713788      0.04201868013958      0.33762249935011
| 10>   O          -1.63387239648381      0.03988707499537      1.79253697358512
| 11>   C          -1.70109563752751      1.54706505937889     -0.59887020734175
| 12>   C          -1.24073458010466      2.81904589906091      0.12116782668484
| 13>   C           0.63687683715159     -0.02684294238605      0.18207134410147
| 14>   C           1.36946499354797     -0.07426680008527      1.38401054948371
| 15>   C           2.77216222563938     -0.12919024823132      1.34945843094845
| 16>   C           3.44563979933412     -0.13668523455608      0.11614444730147
| 17>   C           2.71688683575783     -0.08935231409397     -1.08588024601561
| 18>   C           1.31453236670977     -0.03444398940634     -1.05431643889253
| 19>   H          -0.36178294893904     -2.87054364531370      0.07670483035123
| 20>   H          -1.91422633174687     -3.57913947424449     -0.47652236965340
| 21>   H          -1.82343609901136     -2.70994554932332      1.09662546067379
| 22>   H          -1.41325527028497     -1.33535985365995     -1.67169587343493
| 23>   H          -2.91726074129518     -1.26102460701354     -0.70648526134514
| 24>   H          -2.80947694476615      1.50331254843517     -0.66826809100208
| 25>   H          -1.30479595201178      1.48328556558668     -1.63531639896703
| 26>   H          -1.60117178268557      2.81386454823414      1.16885228032051
| 27>   H          -1.62735405359552      3.72859409856670     -0.38065729471023
| 28>   H          -0.13392608124599      2.88647016912749      0.14680684640928
| 29>   H           0.80880526962895     -0.06701554429221      2.33218571870080
| 30>   H           3.34377658360772     -0.16659093885545      2.28972603002353
| 31>   H           4.54541108585833     -0.17993631778817      0.08903268387168
| 32>   H           3.24538426905434     -0.09546228231456     -2.05169107411844
| 33>   H           0.75134234814412      0.00211187115221     -2.00106469904245
| 34> **                         ****END OF INPUT****

CARTESIAN COORDINATES (ANGSTROEM)
---------------------------------
  C     -1.459771   -2.716166    0.050082
  C     -1.815908   -1.393688   -0.637402
  P     -1.192213    0.042019    0.337622
  O     -1.633872    0.039887    1.792537
  C     -1.701096    1.547065   -0.598870
  C     -1.240735    2.819046    0.121168
  C      0.636877   -0.026843    0.182071
  C      1.369465   -0.074267    1.384011
  C      2.772162   -0.129190    1.349458
  C      3.445640   -0.136685    0.116144
  C      2.716887   -0.089352   -1.085880
  C      1.314532   -0.034444   -1.054316
  H     -0.361783   -2.870544    0.076705
  H     -1.914226   -3.579139   -0.476522
  H     -1.823436   -2.709946    1.096625
  H     -1.413255   -1.335360   -1.671696
  H     -2.917261   -1.261025   -0.706485
  H     -2.809477    1.503313   -0.668268
  H     -1.304796    1.483286   -1.635316
  H     -1.601172    2.813865    1.168852
  H     -1.627354    3.728594   -0.380657
  H     -0.133926    2.886470    0.146807
  H      0.808805   -0.067016    2.332186
  H      3.343777   -0.166591    2.289726
  H      4.545411   -0.179936    0.089033
  H      3.245384   -0.095462   -2.051691
  H      0.751342    0.002112   -2.001065

 Total Charge           Charge          ....    0
 Multiplicity           Mult            ....    1
 Number of Electrons    NEL             ....   98
 Basis Dimension        Dim             ....  468

ORBITAL ENERGIES
----------------

  NO   OCC          E(Eh)            E(eV)
   0   2.0000     -78.086812     -2124.8502
   1   2.0000     -19.561024      -532.2825
   2   2.0000     -10.565606      -287.5048
   3   2.0000     -10.560724      -287.3719
   4   2.0000     -10.559950      -287.3508
   5   2.0000     -10.557570      -287.2861
   6   2.0000     -10.556967      -287.2697
   7   2.0000     -10.555640      -287.2336
   8   2.0000     -10.552857      -287.1578
   9   2.0000     -10.552792      -287.1561
  10   2.0000     -10.537616      -286.7431
  11   2.0000     -10.537605      -286.7428
  12   2.0000      -6.893706      -187.5873
  13   2.0000      -5.010862      -136.3525
  14   2.0000      -5.010490      -136.3424
  15   2.0000      -5.008982      -136.3013
  16   2.0000      -1.056378       -28.7455
  17   2.0000      -0.964107       -26.2347
  18   2.0000      -0.882459       -24.0129
  19   2.0000      -0.859483       -23.3877
  20   2.0000      -0.849127       -23.1059
  21   2.0000      -0.846816       -23.0430
  22   2.0000      -0.746722       -20.3193
  23   2.0000      -0.698199       -18.9990
  24   2.0000      -0.697744       -18.9866
  25   2.0000      -0.690866       -18.7994
  26   2.0000      -0.622703       -16.9446
  27   2.0000      -0.583333       -15.8733
  28   2.0000      -0.535068       -14.5599
  29   2.0000      -0.526023       -14.3138
  30   2.0000      -0.524110       -14.2618
  31   2.0000      -0.522954       -14.2303
  32   2.0000      -0.518566       -14.1109
  33   2.0000      -0.494452       -13.4547
  34   2.0000      -0.480112       -13.0645
  35   2.0000      -0.471412       -12.8278
  36   2.0000      -0.454734       -12.3739
  37   2.0000      -0.446560       -12.1515
  38   2.0000      -0.433231       -11.7888
  39   2.0000      -0.425829       -11.5874
  40   2.0000      -0.416305       -11.3282
  41   2.0000      -0.412933       -11.2365
  42   2.0000      -0.403608       -10.9827
  43   2.0000      -0.400982       -10.9113
  44   2.0000      -0.396963       -10.8019
  45   2.0000      -0.328404        -8.9363
  46   2.0000      -0.328354        -8.9350
  47   2.0000      -0.317438        -8.6379
  48   2.0000      -0.315888        -8.5957
  49   0.0000      -0.006180        -0.1682
  50   0.0000       0.007335         0.1996
  51   0.0000       0.050877         1.3844
  52   0.0000       0.076751         2.0885
  53   0.0000       0.084179         2.2906

MULLIKEN ATOMIC CHARGES
-----------------------
   0 C :   -0.434338
   1 C :   -0.332512
   2 P :    0.631121
   3 O :   -0.608720
   4 C :   -0.333514
   5 C :   -0.433227
   6 C :   -0.161378
   7 C :   -0.119376
   8 C :   -0.137048
   9 C :   -0.135841
  10 C :   -0.155857
  11 C :   -0.163618
  12 H :    0.154440
  13 H :    0.145905
  14 H :    0.175945
  15 H :    0.155242
  16 H :    0.159455
  17 H :    0.159709
  18 H :    0.155406
  19 H :    0.175606
  20 H :    0.145965
  21 H :    0.154370
  22 H :    0.199130
  23 H :    0.150864
  24 H :    0.148836
  25 H :    0.147342
  26 H :    0.156092
Sum of atomic charges:   -0.0000000

LOEWDIN ATOMIC CHARGES
----------------------
   0 C :   -0.334981
   1 C :   -0.394163
   2 P :    0.605506
   3 O :   -0.323170
   4 C :   -0.394107
   5 C :   -0.334951
   6 C :   -0.239805
   7 C :   -0.119449
   8 C :   -0.135941
   9 C :   -0.133535
  10 C :   -0.142045
  11 C :   -0.140260
  12 H :    0.127263
  13 H :    0.123324
  14 H :    0.134800
  15 H :    0.136804
  16 H :    0.143231
  17 H :    0.143247
  18 H :    0.136806
  19 H :    0.134790
  20 H :    0.123317
  21 H :    0.127281
  22 H :    0.162838
  23 H :    0.149528
  24 H :    0.148588
  25 H :    0.148342
  26 H :    0.146741

  Mayer bond orders larger than 0.100000
B(  0-C ,  1-C ) :   0.9386 B(  0-C , 12-H ) :   0.9646 B(  0-C , 13-H ) :   0.9706
B(  0-C , 14-H ) :   0.9632 B(  1-C ,  2-P ) :   0.9171 B(  1-C , 15-H ) :   0.9415
B(  1-C , 16-H ) :   0.9403 B(  2-P ,  3-O ) :   1.9162 B(  2-P ,  4-C ) :   0.9172
B(  2-P ,  6-C ) :   0.9105 B(  4-C ,  5-C ) :   0.9387 B(  4-C , 17-H ) :   0.9402
B(  4-C , 18-H ) :   0.9415 B(  5-C , 19-H ) :   0.9631 B(  5-C , 20-H ) :   0.9706
B(  5-C , 21-H ) :   0.9645 B(  6-C ,  7-C ) :   1.3952 B(  6-C , 11-C ) :   1.3549
B(  7-C ,  8-C ) :   1.4269 B(  7-C , 22-H ) :   0.9075 B(  8-C ,  9-C ) :   1.4380
B(  8-C , 23-H ) :   0.9476 B(  9-C , 10-C ) :   1.4371 B(  9-C , 24-H ) :   0.9460
B( 10-C , 11-C ) :   1.5030 B( 10-C , 25-H ) :   0.9458 B( 11-C , 26-H ) :   0.9161

Dispersion correction           -0.001323207
FINAL SINGLE POINT ENERGY      -806.677203868872

DIPOLE MOMENT
-------------

Method             : SCF
Type of density    : Electron Density
Multiplicity       :   1
Irrep              :   0
Energy             :  -806.6758806622758584 Eh
Relativity type    :
Basis              : AO
                                X                 Y                 Z
Electronic contribution:      3.051729787      -0.163695337       3.528242514
Nuclear contribution   :     -2.422548204       0.158615548      -5.027533033
                        -----------------------------------------
Total Dipole Moment    :      0.629181582      -0.005079790      -1.499290519
                        -----------------------------------------
Magnitude (a.u.)       :      1.625966583
Magnitude (Debye)      :      4.132878608

Rotational constants in cm-1:             0.036457             0.020734             0.017610
Rotational constants in MHz :          1092.960049           621.582223           527.931915

                             ****ORCA TERMINATED NORMALLY****
TOTAL RUN TIME: 0 days 0 hours 1 minutes 4 seconds 882 msec
