                         Program Version 6.0.0  -   RELEASE   -
|  1> ! RIJONX B3LYP def2-SVP D3BJ TIGHTSCF Opt
|  2> %pal
|  3> nprocs 6
|  4> end
|  5>
|  6> * xyz 0 1
|  7> C     -1.701617   -2.562064   -0.358155
|  8> C     -2.047904   -1.085423   -0.255030
|  9> P     -0.984343   -0.195817    0.965631
| 10> C     -1.612198    1.523825    0.718241
| 11> C     -0.848874    2.544629    1.546681
| 12> C      0.630385   -0.152941    0.127816
| 13> C      0.808028    0.306627   -1.183776
| 14> C      2.075355    0.315158   -1.773995
| 15> C      3.182427   -0.135986   -1.060120
| 16> C      3.023187   -0.595850    0.244027
| 17> C      1.756056   -0.603978    0.833076
| 18> H     -2.385270   -3.059210   -1.054233
| 19> H     -1.788600   -3.064061    0.611733
| 20> H     -0.682227   -2.715282   -0.727873
| 21> H     -1.987809   -0.623639   -1.245700
| 22> H     -3.089607   -0.992960    0.072698
| 23> H     -2.665565    1.546438    1.019913
| 24> H     -1.581377    1.810306   -0.337820
| 25> H     -0.891573    2.307832    2.615490
| 26> H     -1.283283    3.540087    1.407355
| 27> H      0.205116    2.598609    1.254250
| 28> H     -0.034039    0.665504   -1.768925
| 29> H      2.196040    0.674892   -2.792439
| 30> H      4.167354   -0.129268   -1.519055
| 31> H      3.883350   -0.949227    0.806331
| 32> H      1.656987   -0.968202    1.853881
| 33> **                         ****END OF INPUT****
 Total Charge           Charge          ....    0
 Multiplicity           Mult            ....    1
 Number of Electrons    NEL             ....   90
Dispersion correction           -0.051548162
FINAL SINGLE POINT ENERGY      -730.803871345478
Dispersion correction             ... done (  0.1 sec)
Dispersion correction           -0.051586448
FINAL SINGLE POINT ENERGY      -730.805889905324
Dispersion correction             ... done (  0.1 sec)
Dispersion correction           -0.051685367
FINAL SINGLE POINT ENERGY      -730.806334343997
Dispersion correction             ... done (  0.1 sec)
FINAL SINGLE POINT ENERGY      -730.806417138365
FINAL SINGLE POINT ENERGY      -730.806430864856
Dispersion correction             ... done (  0.1 sec)
Dispersion correction           -0.051668901
FINAL SINGLE POINT ENERGY      -730.806433507784
Dispersion correction             ... done (  0.1 sec)
Dispersion correction           -0.051676612
FINAL SINGLE POINT ENERGY      -730.806434333931
Dispersion correction             ... done (  0.1 sec)
                    ***********************HURRAY********************

CARTESIAN COORDINATES (ANGSTROEM)
---------------------------------
  C     -1.662514   -2.562568   -0.428395
  C     -2.069525   -1.099907   -0.248688
  P     -1.032295   -0.217819    1.036074
  C     -1.619652    1.534955    0.739085
  C     -0.793778    2.567654    1.506245
  C      0.607897   -0.168878    0.168711
  C      0.769708    0.280228   -1.153343
  C      2.029960    0.297567   -1.753875
  C      3.153322   -0.134812   -1.039683
  C      3.008062   -0.583639    0.274885
  C      1.743120   -0.599932    0.872455
  H     -2.319834   -3.073907   -1.150450
  H     -1.715669   -3.112623    0.525240
  H     -0.628710   -2.643134   -0.801096
  H     -2.024841   -0.560975   -1.211352
  H     -3.113831   -1.029505    0.102743
  H     -2.674135    1.562928    1.065264
  H     -1.617852    1.759195   -0.342053
  H     -0.800860    2.361495    2.588957
  H     -1.186699    3.586106    1.353690
  H      0.256718    2.560452    1.173675
  H     -0.097365    0.622372   -1.725013
  H      2.138300    0.649996   -2.783212
  H      4.140103   -0.120873   -1.509824
  H      3.881371   -0.922740    0.838336
  H      1.628997   -0.951637    1.901624

 Multiplicity           Mult            ....    1
 Number of Electrons    NEL             ....   90
 Basis Dimension        Dim             ....  233

ORBITAL ENERGIES
----------------

  NO   OCC          E(Eh)            E(eV)
   0   2.0000     -77.034730     -2096.2216
   1   2.0000     -10.191921      -277.3363
   2   2.0000     -10.191814      -277.3334
   3   2.0000     -10.191132      -277.3148
   4   2.0000     -10.189965      -277.2830
   5   2.0000     -10.189399      -277.2677
   6   2.0000     -10.186867      -277.1987
   7   2.0000     -10.182622      -277.0832
   8   2.0000     -10.182603      -277.0827
   9   2.0000     -10.176964      -276.9293
  10   2.0000     -10.176878      -276.9269
  11   2.0000      -6.531925      -177.7427
  12   2.0000      -4.697485      -127.8251
  13   2.0000      -4.697099      -127.8146
  14   2.0000      -4.694219      -127.7362
  15   2.0000      -0.845792       -23.0152
  16   2.0000      -0.772467       -21.0199
  17   2.0000      -0.741776       -20.1848
  18   2.0000      -0.736735       -20.0476
  19   2.0000      -0.732435       -19.9306
  20   2.0000      -0.645617       -17.5681
  21   2.0000      -0.600417       -16.3382
  22   2.0000      -0.593219       -16.1423
  23   2.0000      -0.591648       -16.0996
  24   2.0000      -0.537543       -14.6273
  25   2.0000      -0.500050       -13.6071
  26   2.0000      -0.455997       -12.4083
  27   2.0000      -0.444188       -12.0870
  28   2.0000      -0.442928       -12.0527
  29   2.0000      -0.435219       -11.8429
  30   2.0000      -0.431460       -11.7406
  31   2.0000      -0.419267       -11.4088
  32   2.0000      -0.401216       -10.9176
  33   2.0000      -0.392511       -10.6808
  34   2.0000      -0.371162       -10.0998
  35   2.0000      -0.367266        -9.9938
  36   2.0000      -0.358517        -9.7557
  37   2.0000      -0.351196        -9.5565
  38   2.0000      -0.344743        -9.3809
  39   2.0000      -0.338962        -9.2236
  40   2.0000      -0.307784        -8.3752
  41   2.0000      -0.305426        -8.3111
  42   2.0000      -0.255698        -6.9579
  43   2.0000      -0.251786        -6.8514
  44   2.0000      -0.223625        -6.0851
  45   0.0000      -0.021068        -0.5733
  46   0.0000      -0.009265        -0.2521
  47   0.0000       0.056422         1.5353
  48   0.0000       0.058344         1.5876
  49   0.0000       0.060582         1.6485

MULLIKEN ATOMIC CHARGES
-----------------------
   0 C :    0.022251
   1 C :   -0.159196
   2 P :    0.196791
   3 C :   -0.158110
   4 C :    0.022013
   5 C :   -0.138092
   6 C :    0.011893
   7 C :    0.023577
   8 C :    0.022067
   9 C :    0.021570
  10 C :    0.019868
  11 H :    0.013711
  12 H :    0.017521
  13 H :    0.025532
  14 H :    0.017440
  15 H :    0.029115
  16 H :    0.028975
  17 H :    0.017358
  18 H :    0.017382
  19 H :    0.013721
  20 H :    0.025591
  21 H :   -0.021293
  22 H :   -0.019079
  23 H :   -0.014952
  24 H :   -0.015748
  25 H :   -0.019906
Sum of atomic charges:   -0.0000000

LOEWDIN ATOMIC CHARGES
----------------------
   0 C :   -0.065757
   1 C :   -0.179268
   2 P :    0.466028
   3 C :   -0.178799
   4 C :   -0.065838
   5 C :   -0.176093
   6 C :   -0.028499
   7 C :   -0.026377
   8 C :   -0.021209
   9 C :   -0.026190
  10 C :   -0.029356
  11 H :    0.023491
  12 H :    0.022749
  13 H :    0.024222
  14 H :    0.011839
  15 H :    0.021306
  16 H :    0.021100
  17 H :    0.011986
  18 H :    0.022660
  19 H :    0.023483
  20 H :    0.024270
  21 H :    0.020632
  22 H :    0.026284
  23 H :    0.026964
  24 H :    0.027169
  25 H :    0.023203

  Mayer bond orders larger than 0.100000
B(  0-C ,  1-C ) :   1.0817 B(  0-C , 11-H ) :   0.9657 B(  0-C , 12-H ) :   0.9679
B(  0-C , 13-H ) :   0.9715 B(  1-C ,  2-P ) :   0.9721 B(  1-C , 14-H ) :   0.9316
B(  1-C , 15-H ) :   0.9450 B(  2-P ,  3-C ) :   0.9720 B(  2-P ,  5-C ) :   0.9104
B(  3-C ,  4-C ) :   1.0816 B(  3-C , 16-H ) :   0.9452 B(  3-C , 17-H ) :   0.9319
B(  4-C , 18-H ) :   0.9679 B(  4-C , 19-H ) :   0.9656 B(  4-C , 20-H ) :   0.9716
B(  5-C ,  6-C ) :   1.3513 B(  5-C , 10-C ) :   1.3994 B(  6-C ,  7-C ) :   1.4130
B(  6-C , 21-H ) :   0.9785 B(  7-C ,  8-C ) :   1.3709 B(  7-C , 22-H ) :   0.9830
B(  8-C ,  9-C ) :   1.3925 B(  8-C , 23-H ) :   0.9843 B(  9-C , 10-C ) :   1.3781
B(  9-C , 24-H ) :   0.9858 B( 10-C , 25-H ) :   0.9850

Dispersion correction           -0.051676713
FINAL SINGLE POINT ENERGY      -730.806434546638

DIPOLE MOMENT
-------------

Method             : SCF
Type of density    : Electron Density
Multiplicity       :   1
Irrep              :   0
Energy             :  -730.7547578333234242 Eh
Relativity type    :
Basis              : AO
                                X                 Y                 Z
Electronic contribution:      5.044129708      -1.605440842       1.994343329
Nuclear contribution   :     -5.011239629       1.766345541      -2.435606211
                        -----------------------------------------
Total Dipole Moment    :      0.032890079       0.160904699      -0.441262883
                        -----------------------------------------
Magnitude (a.u.)       :      0.470834377
Magnitude (Debye)      :      1.196765879

Rotational constants in cm-1:             0.040709             0.024012             0.018949
Rotational constants in MHz :          1220.425713           719.862701           568.069637

                             ****ORCA TERMINATED NORMALLY****
TOTAL RUN TIME: 0 days 0 hours 2 minutes 7 seconds 804 msec
