                         Program Version 6.0.0  -   RELEASE   -
|  1> ! RIJCOSX M062X def2-TZVP D3ZERO NormalSCF
|  2> %pal
|  3> nprocs 6
|  4> end
|  5>
|  6> * xyz 0 1
|  7>   C           2.71054881846791     -0.11245450271681      0.70940337994443
|  8>   C           1.72121284267574      0.41632848489327     -0.35150078700420
|  9>   P          -0.01818737417871      0.00545608444698      0.13188176583863
| 10>   O          -0.22794030254757      0.05951107811269      1.63884645605387
| 11>   C          -0.37518453223785     -1.67163612644857     -0.56733486544573
| 12>   C          -1.54061283434504     -2.33400843216796      0.19866357078401
| 13>   C          -2.83193881982764     -1.70070798743794     -0.07789265911485
| 14>   N          -3.83217851308873     -1.14513813430165     -0.32992835959356
| 15>   C          -1.11036542406791      1.19563891063327     -0.77294524837285
| 16>   C          -1.30543956773576      2.48088913991626      0.06026321264111
| 17>   C          -0.09316422732712      3.29996630593542      0.12759044248488
| 18>   N           0.90992690303680      3.90475494656640      0.15434584993368
| 19>   C           2.82067540836451     -1.57285998127599      0.70176199420522
| 20>   N           2.85631986884747     -2.74300865870245      0.65533248615792
| 21>   H           3.71856955954340      0.32336671813416      0.54900514168142
| 22>   H           2.35958844898411      0.20503762345466      1.71489019379407
| 23>   H           1.79640041403295      1.52179866911622     -0.38377789291734
| 24>   H           1.94627029691376      0.02663696965942     -1.36593664332264
| 25>   H          -0.57308157129439     -1.60675331680294     -1.65744130722272
| 26>   H           0.53658808650057     -2.28453688101026     -0.42012170499848
| 27>   H          -1.34068214294630     -2.25679456423303      1.28907289387155
| 28>   H          -1.60839179871652     -3.41165453559044     -0.05803516816728
| 29>   H          -0.70377869060874      1.40899377893045     -1.78332019452237
| 30>   H          -2.09533934929142      0.70241852857801     -0.89627763898486
| 31>   H          -2.12878322955433      3.09370206902557     -0.36199537413931
| 32>   H          -1.59103026959918      2.19505281328527      1.09545145641541
| 33> **                         ****END OF INPUT****

CARTESIAN COORDINATES (ANGSTROEM)
---------------------------------
  C      2.710549   -0.112455    0.709403
  C      1.721213    0.416328   -0.351501
  P     -0.018187    0.005456    0.131882
  O     -0.227940    0.059511    1.638846
  C     -0.375185   -1.671636   -0.567335
  C     -1.540613   -2.334008    0.198664
  C     -2.831939   -1.700708   -0.077893
  N     -3.832179   -1.145138   -0.329928
  C     -1.110365    1.195639   -0.772945
  C     -1.305440    2.480889    0.060263
  C     -0.093164    3.299966    0.127590
  N      0.909927    3.904755    0.154346
  C      2.820675   -1.572860    0.701762
  N      2.856320   -2.743009    0.655332
  H      3.718570    0.323367    0.549005
  H      2.359588    0.205038    1.714890
  H      1.796400    1.521799   -0.383778
  H      1.946270    0.026637   -1.365937
  H     -0.573082   -1.606753   -1.657441
  H      0.536588   -2.284537   -0.420122
  H     -1.340682   -2.256795    1.289073
  H     -1.608392   -3.411655   -0.058035
  H     -0.703779    1.408994   -1.783320
  H     -2.095339    0.702419   -0.896278
  H     -2.128783    3.093702   -0.361995
  H     -1.591030    2.195053    1.095451

 Total Charge           Charge          ....    0
 Multiplicity           Mult            ....    1
 Number of Electrons    NEL             ....  110
 Basis Dimension        Dim             ....  512

ORBITAL ENERGIES
----------------

  NO   OCC          E(Eh)            E(eV)
   0   2.0000     -78.124572     -2125.8777
   1   2.0000     -19.593852      -533.1758
   2   2.0000     -14.774811      -402.0430
   3   2.0000     -14.774793      -402.0426
   4   2.0000     -14.774780      -402.0422
   5   2.0000     -10.612755      -288.7878
   6   2.0000     -10.612741      -288.7874
   7   2.0000     -10.612676      -288.7856
   8   2.0000     -10.600293      -288.4486
   9   2.0000     -10.600291      -288.4486
  10   2.0000     -10.600256      -288.4476
  11   2.0000     -10.591882      -288.2198
  12   2.0000     -10.591796      -288.2174
  13   2.0000     -10.591770      -288.2167
  14   2.0000      -6.931490      -188.6154
  15   2.0000      -5.048334      -137.3722
  16   2.0000      -5.048323      -137.3719
  17   2.0000      -5.046893      -137.3329
  18   2.0000      -1.091982       -29.7143
  19   2.0000      -1.028226       -27.9795
  20   2.0000      -1.028007       -27.9735
  21   2.0000      -1.027975       -27.9726
  22   2.0000      -0.936630       -25.4870
  23   2.0000      -0.922519       -25.1030
  24   2.0000      -0.922481       -25.1020
  25   2.0000      -0.824749       -22.4426
  26   2.0000      -0.775636       -21.1061
  27   2.0000      -0.775584       -21.1047
  28   2.0000      -0.651627       -17.7317
  29   2.0000      -0.612624       -16.6703
  30   2.0000      -0.612595       -16.6696
  31   2.0000      -0.606471       -16.5029
  32   2.0000      -0.580639       -15.8000
  33   2.0000      -0.580582       -15.7984
  34   2.0000      -0.545533       -14.8447
  35   2.0000      -0.532785       -14.4978
  36   2.0000      -0.532726       -14.4962
  37   2.0000      -0.520042       -14.1511
  38   2.0000      -0.493814       -13.4374
  39   2.0000      -0.490481       -13.3467
  40   2.0000      -0.490427       -13.3452
  41   2.0000      -0.462959       -12.5978
  42   2.0000      -0.462934       -12.5971
  43   2.0000      -0.457723       -12.4553
  44   2.0000      -0.450871       -12.2688
  45   2.0000      -0.450808       -12.2671
  46   2.0000      -0.448275       -12.1982
  47   2.0000      -0.417125       -11.3505
  48   2.0000      -0.407672       -11.0933
  49   2.0000      -0.407655       -11.0928
  50   2.0000      -0.406187       -11.0529
  51   2.0000      -0.401025       -10.9124
  52   2.0000      -0.401010       -10.9120
  53   2.0000      -0.361307        -9.8317
  54   2.0000      -0.361251        -9.8301
  55   0.0000       0.022120         0.6019
  56   0.0000       0.028107         0.7648
  57   0.0000       0.028127         0.7654
  58   0.0000       0.038954         1.0600
  59   0.0000       0.045395         1.2353

MULLIKEN ATOMIC CHARGES
-----------------------
   0 C :   -0.212655
   1 C :   -0.420334
   2 P :    0.588528
   3 O :   -0.595909
   4 C :   -0.421094
   5 C :   -0.212589
   6 C :   -0.152797
   7 N :   -0.029674
   8 C :   -0.420206
   9 C :   -0.214247
  10 C :   -0.151618
  11 N :   -0.029439
  12 C :   -0.152946
  13 N :   -0.029738
  14 H :    0.190519
  15 H :    0.223238
  16 H :    0.207843
  17 H :    0.197018
  18 H :    0.196673
  19 H :    0.207734
  20 H :    0.222832
  21 H :    0.190608
  22 H :    0.196842
  23 H :    0.207499
  24 H :    0.190858
  25 H :    0.223054
Sum of atomic charges:    0.0000000

LOEWDIN ATOMIC CHARGES
----------------------
   0 C :   -0.255762
   1 C :   -0.343295
   2 P :    0.590786
   3 O :   -0.311295
   4 C :   -0.343333
   5 C :   -0.255841
   6 C :   -0.198585
   7 N :    0.042602
   8 C :   -0.343285
   9 C :   -0.255808
  10 C :   -0.198590
  11 N :    0.042612
  12 C :   -0.198625
  13 N :    0.042611
  14 H :    0.171669
  15 H :    0.182453
  16 H :    0.158630
  17 H :    0.149294
  18 H :    0.149222
  19 H :    0.158618
  20 H :    0.182389
  21 H :    0.171672
  22 H :    0.149240
  23 H :    0.158564
  24 H :    0.171619
  25 H :    0.182437

  Mayer bond orders larger than 0.100000
B(  0-C ,  1-C ) :   0.9019 B(  0-C , 12-C ) :   0.9484 B(  0-C , 14-H ) :   0.9474
B(  0-C , 15-H ) :   0.9414 B(  1-C ,  2-P ) :   0.9134 B(  1-C , 16-H ) :   0.9396
B(  1-C , 17-H ) :   0.9335 B(  2-P ,  3-O ) :   1.8741 B(  2-P ,  4-C ) :   0.9119
B(  2-P ,  8-C ) :   0.9131 B(  4-C ,  5-C ) :   0.9020 B(  4-C , 18-H ) :   0.9339
B(  4-C , 19-H ) :   0.9398 B(  5-C ,  6-C ) :   0.9483 B(  5-C , 20-H ) :   0.9417
B(  5-C , 21-H ) :   0.9472 B(  6-C ,  7-N ) :   2.9817 B(  8-C ,  9-C ) :   0.9015
B(  8-C , 22-H ) :   0.9337 B(  8-C , 23-H ) :   0.9396 B(  9-C , 10-C ) :   0.9471
B(  9-C , 24-H ) :   0.9472 B(  9-C , 25-H ) :   0.9417 B( 10-C , 11-N ) :   2.9814
B( 12-C , 13-N ) :   2.9818

Dispersion correction           -0.001385905
FINAL SINGLE POINT ENERGY      -930.995460861219

DIPOLE MOMENT
-------------

Method             : SCF
Type of density    : Electron Density
Multiplicity       :   1
Irrep              :   0
Energy             :  -930.9940749564005955 Eh
Relativity type    :
Basis              : AO
                                X                 Y                 Z
Electronic contribution:     -0.366081027       0.097543334       2.641104848
Nuclear contribution   :      0.551115018      -0.145342454      -3.971150074
                        -----------------------------------------
Total Dipole Moment    :      0.185033992      -0.047799120      -1.330045226
                        -----------------------------------------
Magnitude (a.u.)       :      1.343704818
Magnitude (Debye)      :      3.415426219

Rotational constants in cm-1:             0.020022             0.020007             0.010943
Rotational constants in MHz :           600.239705           599.790863           328.060871

                             ****ORCA TERMINATED NORMALLY****
TOTAL RUN TIME: 0 days 0 hours 0 minutes 56 seconds 416 msec
