                         Program Version 6.0.0  -   RELEASE   -
|  1> ! RIJONX B3LYP def2-SVP D3BJ TIGHTSCF Opt
|  2> %pal
|  3> nprocs 6
|  4> end
|  5>
|  6> * xyz 0 1
|  7> C     -2.984481   -2.565342    2.341324
|  8> C     -3.582369   -1.376507    1.936627
|  9> C     -3.054390   -0.659794    0.858701
| 10> C     -1.906826   -1.104362    0.176727
| 11> C     -1.343104   -2.324505    0.580796
| 12> C     -1.868955   -3.042494    1.660095
| 13> P     -1.280218   -0.151172   -1.246387
| 14> C     -1.086634    1.554312   -0.613191
| 15> C     -0.883669    1.880072    0.736494
| 16> C     -0.737050    3.209933    1.142857
| 17> C     -0.789658    4.237448    0.205498
| 18> C     -0.987305    3.936425   -1.138707
| 19> C     -1.133559    2.606629   -1.543983
| 20> C      0.466984   -0.646533   -1.413530
| 21> C      1.404680   -0.542845   -0.377422
| 22> C      2.731022   -0.935995   -0.586628
| 23> C      3.152012   -1.427583   -1.822409
| 24> C      2.228139   -1.537513   -2.857266
| 25> C      0.899221   -1.150152   -2.653621
| 26> S      3.901406   -0.761709    0.728688
| 27> O      5.187603   -0.447480    0.143713
| 28> O      3.714731   -1.875896    1.628993
| 29> O      3.459333    0.587065    1.496647
| 30> H     -3.393329   -3.125406    3.178038
| 31> H     -4.463515   -1.006042    2.453939
| 32> H     -3.554063    0.259581    0.557010
| 33> H     -0.487529   -2.748297    0.060375
| 34> H     -1.407409   -3.979667    1.961425
| 35> H     -0.830714    1.105202    1.497910
| 36> H     -0.581663    3.439539    2.194018
| 37> H     -0.676860    5.270871    0.522265
| 38> H     -1.028560    4.734839   -1.875053
| 39> H     -1.285533    2.401020   -2.602101
| 40> H      1.109657   -0.170828    0.600766
| 41> H      4.186103   -1.724351   -1.983154
| 42> H      2.537687   -1.921836   -3.826451
| 43> H      0.198812   -1.245294   -3.482540
| 44> H      4.170004    1.248670    1.359537
| 45> **                         ****END OF INPUT****
 Total Charge           Charge          ....    0
 Multiplicity           Mult            ....    1
 Number of Electrons    NEL             ....  178
Dispersion correction           -0.100176850
FINAL SINGLE POINT ENERGY     -1658.644704514605
Dispersion correction             ... done (  0.1 sec)
Dispersion correction           -0.100852521
FINAL SINGLE POINT ENERGY     -1658.649422678011
Dispersion correction             ... done (  0.1 sec)
Dispersion correction           -0.100981261
FINAL SINGLE POINT ENERGY     -1658.651155146887
Dispersion correction             ... done (  0.1 sec)
FINAL SINGLE POINT ENERGY     -1658.652240420451
FINAL SINGLE POINT ENERGY     -1658.653445200627
FINAL SINGLE POINT ENERGY     -1658.654471539082
FINAL SINGLE POINT ENERGY     -1658.655069909883
FINAL SINGLE POINT ENERGY     -1658.655278386930
FINAL SINGLE POINT ENERGY     -1658.655375982603
FINAL SINGLE POINT ENERGY     -1658.655419787829
FINAL SINGLE POINT ENERGY     -1658.655428530258
FINAL SINGLE POINT ENERGY     -1658.655432519292
Dispersion correction             ... done (  0.1 sec)
Dispersion correction           -0.101003418
FINAL SINGLE POINT ENERGY     -1658.655433999896
Dispersion correction             ... done (  0.1 sec)
Dispersion correction           -0.101005212
FINAL SINGLE POINT ENERGY     -1658.655434609436
Dispersion correction             ... done (  0.1 sec)
                    ***********************HURRAY********************

CARTESIAN COORDINATES (ANGSTROEM)
---------------------------------
  C     -3.344477   -2.706078    1.884529
  C     -4.090858   -1.888419    1.030026
  C     -3.442996   -1.086612    0.087976
  C     -2.040405   -1.076955   -0.002445
  C     -1.300046   -1.902417    0.859244
  C     -1.949587   -2.713175    1.794533
  P     -1.291612    0.049377   -1.261424
  C     -1.042584    1.597108   -0.286375
  C     -1.143858    1.671063    1.111477
  C     -0.912624    2.880621    1.773026
  C     -0.574314    4.026785    1.048475
  C     -0.476203    3.963814   -0.345205
  C     -0.718298    2.759139   -1.008050
  C      0.441759   -0.603033   -1.320353
  C      1.510788   -0.027884   -0.622325
  C      2.784925   -0.589958   -0.741182
  C      3.032032   -1.720095   -1.521215
  C      1.962107   -2.292610   -2.215359
  C      0.687012   -1.732138   -2.124525
  S      4.135698    0.163493    0.149332
  O      5.278251   -0.748394    0.136043
  O      3.618766    0.759010    1.368453
  O      4.522901    1.430769   -0.822867
  H     -3.849945   -3.339812    2.617627
  H     -5.182147   -1.881344    1.091737
  H     -4.030567   -0.457487   -0.587075
  H     -0.209737   -1.909610    0.805840
  H     -1.360762   -3.350121    2.459726
  H     -1.398160    0.779277    1.687442
  H     -0.990534    2.924651    2.862326
  H     -0.388730    4.969584    1.569049
  H     -0.216120    4.857498   -0.918195
  H     -0.651191    2.715423   -2.099188
  H      1.361864    0.837289    0.024868
  H      4.038184   -2.139591   -1.567377
  H      2.127007   -3.179095   -2.832440
  H     -0.140901   -2.181994   -2.680092
  H      5.245363    1.141924   -1.406038

 Multiplicity           Mult            ....    1
 Number of Electrons    NEL             ....  178
 Basis Dimension        Dim             ....  405

ORBITAL ENERGIES
----------------

  NO   OCC          E(Eh)            E(eV)
   0   2.0000     -89.089806     -2424.2569
   1   2.0000     -77.061881     -2096.9604
   2   2.0000     -19.181443      -521.9536
   3   2.0000     -19.132553      -520.6232
   4   2.0000     -19.129402      -520.5375
   5   2.0000     -10.230190      -278.3776
   6   2.0000     -10.219238      -278.0796
   7   2.0000     -10.216069      -277.9934
   8   2.0000     -10.215091      -277.9668
   9   2.0000     -10.213734      -277.9298
  10   2.0000     -10.212682      -277.9012
  11   2.0000     -10.200093      -277.5586
  12   2.0000     -10.198714      -277.5211
  13   2.0000     -10.197877      -277.4983
  14   2.0000     -10.197709      -277.4938
  15   2.0000     -10.197413      -277.4857
  16   2.0000     -10.197082      -277.4767
  17   2.0000     -10.196782      -277.4686
  18   2.0000     -10.196535      -277.4618
  19   2.0000     -10.194636      -277.4102
  20   2.0000     -10.194276      -277.4003
  21   2.0000     -10.194184      -277.3978
  22   2.0000     -10.193301      -277.3738
  23   2.0000      -8.151525      -221.8143
  24   2.0000      -6.557617      -178.4418
  25   2.0000      -6.121871      -166.5846
  26   2.0000      -6.118847      -166.5023
  27   2.0000      -6.117705      -166.4712
  28   2.0000      -4.723130      -128.5229
  29   2.0000      -4.722946      -128.5179
  30   2.0000      -4.720131      -128.4413
  31   2.0000      -1.136532       -30.9266
  32   2.0000      -1.022153       -27.8142
  33   2.0000      -1.002441       -27.2778
  34   2.0000      -0.877419       -23.8758
  35   2.0000      -0.855255       -23.2727
  36   2.0000      -0.849274       -23.1099
  37   2.0000      -0.785569       -21.3764
  38   2.0000      -0.773056       -21.0359
  39   2.0000      -0.751337       -20.4449
  40   2.0000      -0.743732       -20.2380
  41   2.0000      -0.741772       -20.1847
  42   2.0000      -0.738094       -20.0846
  43   2.0000      -0.680858       -18.5271
  44   2.0000      -0.656799       -17.8724
  45   2.0000      -0.621647       -16.9159
  46   2.0000      -0.609730       -16.5916
  47   2.0000      -0.605044       -16.4641
  48   2.0000      -0.601784       -16.3754
  49   2.0000      -0.594524       -16.1778
  50   2.0000      -0.570988       -15.5374
  51   2.0000      -0.545725       -14.8499
  52   2.0000      -0.524415       -14.2701
  53   2.0000      -0.520247       -14.1567
  54   2.0000      -0.501665       -13.6510
  55   2.0000      -0.491257       -13.3678
  56   2.0000      -0.486721       -13.2443
  57   2.0000      -0.470092       -12.7919
  58   2.0000      -0.461475       -12.5574
  59   2.0000      -0.459279       -12.4976
  60   2.0000      -0.453422       -12.3382
  61   2.0000      -0.451253       -12.2792
  62   2.0000      -0.446162       -12.1407
  63   2.0000      -0.429731       -11.6936
  64   2.0000      -0.427951       -11.6451
  65   2.0000      -0.425486       -11.5781
  66   2.0000      -0.422843       -11.5062
  67   2.0000      -0.413738       -11.2584
  68   2.0000      -0.396670       -10.7939
  69   2.0000      -0.392284       -10.6746
  70   2.0000      -0.380108       -10.3433
  71   2.0000      -0.373083       -10.1521
  72   2.0000      -0.370568       -10.0837
  73   2.0000      -0.362160        -9.8549
  74   2.0000      -0.353160        -9.6100
  75   2.0000      -0.349592        -9.5129
  76   2.0000      -0.345096        -9.3906
  77   2.0000      -0.338348        -9.2069
  78   2.0000      -0.329853        -8.9758
  79   2.0000      -0.324994        -8.8435
  80   2.0000      -0.320774        -8.7287
  81   2.0000      -0.309130        -8.4119
  82   2.0000      -0.289828        -7.8866
  83   2.0000      -0.279954        -7.6179
  84   2.0000      -0.272606        -7.4180
  85   2.0000      -0.265702        -7.2301
  86   2.0000      -0.261566        -7.1176
  87   2.0000      -0.258158        -7.0248
  88   2.0000      -0.226913        -6.1746
  89   0.0000      -0.053643        -1.4597
  90   0.0000      -0.040208        -1.0941
  91   0.0000      -0.031612        -0.8602
  92   0.0000      -0.017770        -0.4835
  93   0.0000      -0.016944        -0.4611

MULLIKEN ATOMIC CHARGES
-----------------------
   0 C :    0.025083
   1 C :    0.021654
   2 C :    0.028114
   3 C :   -0.166249
   4 C :    0.019907
   5 C :    0.025279
   6 P :    0.367918
   7 C :   -0.176005
   8 C :    0.020071
   9 C :    0.032862
  10 C :    0.028713
  11 C :    0.024525
  12 C :    0.024773
  13 C :   -0.173075
  14 C :    0.039113
  15 C :   -0.089211
  16 C :    0.021123
  17 C :    0.021704
  18 C :    0.050664
  19 S :    0.962562
  20 O :   -0.453571
  21 O :   -0.428329
  22 O :   -0.340869
  23 H :   -0.011788
  24 H :   -0.012303
  25 H :   -0.013986
  26 H :   -0.002879
  27 H :   -0.012970
  28 H :   -0.001328
  29 H :   -0.013006
  30 H :   -0.011104
  31 H :   -0.012745
  32 H :   -0.016053
  33 H :    0.025007
  34 H :    0.006311
  35 H :   -0.002265
  36 H :   -0.004459
  37 H :    0.196808
Sum of atomic charges:   -0.0000000

LOEWDIN ATOMIC CHARGES
----------------------
   0 C :   -0.019118
   1 C :   -0.023229
   2 C :   -0.027157
   3 C :   -0.175634
   4 C :   -0.030400
   5 C :   -0.022916
   6 P :    0.518253
   7 C :   -0.179738
   8 C :   -0.027346
   9 C :   -0.019043
  10 C :   -0.015974
  11 C :   -0.022164
  12 C :   -0.030015
  13 C :   -0.164201
  14 C :   -0.016203
  15 C :   -0.187446
  16 C :   -0.017495
  17 C :   -0.017209
  18 C :   -0.008041
  19 S :    1.216712
  20 O :   -0.503545
  21 O :   -0.475539
  22 O :   -0.257634
  23 H :    0.028587
  24 H :    0.028943
  25 H :    0.025534
  26 H :    0.028468
  27 H :    0.029280
  28 H :    0.030040
  29 H :    0.029650
  30 H :    0.029133
  31 H :    0.028956
  32 H :    0.024394
  33 H :    0.039125
  34 H :    0.035853
  35 H :    0.034073
  36 H :    0.030738
  37 H :    0.082308

  Mayer bond orders larger than 0.100000
B(  0-C ,  1-C ) :   1.3780 B(  0-C ,  5-C ) :   1.3804 B(  0-C , 23-H ) :   0.9848
B(  1-C ,  2-C ) :   1.4023 B(  1-C , 24-H ) :   0.9851 B(  2-C ,  3-C ) :   1.3741
B(  2-C , 25-H ) :   0.9821 B(  3-C ,  4-C ) :   1.3771 B(  3-C ,  6-P ) :   0.9405
B(  4-C ,  5-C ) :   1.3881 B(  4-C , 26-H ) :   0.9798 B(  5-C , 27-H ) :   0.9844
B(  6-P ,  7-C ) :   0.9371 B(  6-P , 13-C ) :   0.9166 B(  7-C ,  8-C ) :   1.3811
B(  7-C , 12-C ) :   1.3688 B(  8-C ,  9-C ) :   1.3875 B(  8-C , 28-H ) :   0.9801
B(  9-C , 10-C ) :   1.3821 B(  9-C , 29-H ) :   0.9836 B( 10-C , 11-C ) :   1.3781
B( 10-C , 30-H ) :   0.9843 B( 11-C , 12-C ) :   1.4039 B( 11-C , 31-H ) :   0.9849
B( 12-C , 32-H ) :   0.9821 B( 13-C , 14-C ) :   1.3836 B( 13-C , 18-C ) :   1.3643
B( 14-C , 15-C ) :   1.3416 B( 14-C , 33-H ) :   0.9826 B( 15-C , 16-C ) :   1.3963
B( 15-C , 19-S ) :   0.8556 B( 16-C , 17-C ) :   1.3531 B( 16-C , 34-H ) :   0.9840
B( 17-C , 18-C ) :   1.4062 B( 17-C , 35-H ) :   0.9851 B( 18-C , 36-H ) :   0.9827
B( 19-S , 20-O ) :   1.7066 B( 19-S , 21-O ) :   1.7599 B( 19-S , 22-O ) :   0.9371
B( 22-O , 37-H ) :   0.9430

Dispersion correction           -0.101003329
FINAL SINGLE POINT ENERGY     -1658.655434924403

DIPOLE MOMENT
-------------

Method             : SCF
Type of density    : Electron Density
Multiplicity       :   1
Irrep              :   0
Energy             : -1658.5544315958354673 Eh
Relativity type    :
Basis              : AO
                                X                 Y                 Z
Electronic contribution:      9.986405559       0.335112066      -4.126374231
Nuclear contribution   :    -10.773367245      -0.702215207       3.235270662
                        -----------------------------------------
Total Dipole Moment    :     -0.786961686      -0.367103141      -0.891103569
                        -----------------------------------------
Magnitude (a.u.)       :      1.244242332
Magnitude (Debye)      :      3.162612672

Rotational constants in cm-1:             0.010057             0.005533             0.004395
Rotational constants in MHz :           301.507519           165.863492           131.757376

                             ****ORCA TERMINATED NORMALLY****
TOTAL RUN TIME: 0 days 0 hours 16 minutes 25 seconds 871 msec
