                         Program Version 6.0.0  -   RELEASE   -
|  1> ! RI BP86 def2-SVP D3BJ TIGHTSCF Opt
|  2> %pal
|  3> nprocs 6
|  4> end
|  5>
|  6> * xyz 0 1
|  7> C     -3.711811   -2.815281    1.061109
|  8> C     -3.965470   -2.335379   -0.221490
|  9> C     -2.990860   -1.598439   -0.894559
| 10> C     -1.750350   -1.330864   -0.293989
| 11> C     -1.507710   -1.823316    0.996808
| 12> C     -2.484378   -2.560659    1.669500
| 13> P     -0.539938   -0.358347   -1.208658
| 14> O     -0.621228   -0.645610   -2.699102
| 15> C     -0.842835    1.386443   -0.871631
| 16> C     -0.393546    2.339517   -1.799702
| 17> C     -0.587496    3.702234   -1.573436
| 18> C     -1.234187    4.129425   -0.416264
| 19> C     -1.690005    3.195339    0.511864
| 20> C     -1.497513    1.830872    0.286225
| 21> C      1.101950   -0.767314   -0.574891
| 22> C      1.719742   -0.038246    0.450555
| 23> C      2.985560   -0.418850    0.910822
| 24> C      3.656733   -1.510341    0.357267
| 25> C      3.049838   -2.234346   -0.666252
| 26> C      1.783696   -1.865601   -1.127084
| 27> S      3.747532    0.523120    2.203094
| 28> O      3.013966    0.258021    3.419302
| 29> O      5.181051    0.350412    2.110440
| 30> O      3.486943    2.059318    1.784772
| 31> H     -4.469939   -3.391475    1.585481
| 32> H     -4.920500   -2.537098   -0.700110
| 33> H     -3.193466   -1.231338   -1.900036
| 34> H     -0.559856   -1.640259    1.495979
| 35> H     -2.286538   -2.939270    2.669587
| 36> H      0.105407    2.011566   -2.710794
| 37> H     -0.238368    4.429107   -2.302489
| 38> H     -1.388341    5.190969   -0.239976
| 39> H     -2.199620    3.530283    1.412240
| 40> H     -1.865980    1.123990    1.025308
| 41> H      1.222157    0.817930    0.901140
| 42> H      4.642809   -1.800844    0.713503
| 43> H      3.560520   -3.086499   -1.109613
| 44> H      1.318910   -2.436052   -1.931720
| 45> H      4.363119    2.486883    1.676914
| 46> **                         ****END OF INPUT****
 Total Charge           Charge          ....    0
 Multiplicity           Mult            ....    1
 Number of Electrons    NEL             ....  186
Dispersion correction           -0.099340213
FINAL SINGLE POINT ENERGY     -1734.569324616198
Dispersion correction             ... done (  0.1 sec)
Dispersion correction           -0.099381926
FINAL SINGLE POINT ENERGY     -1734.578446370469
Dispersion correction             ... done (  0.1 sec)
Dispersion correction           -0.099629972
FINAL SINGLE POINT ENERGY     -1734.581348412812
Dispersion correction             ... done (  0.1 sec)
FINAL SINGLE POINT ENERGY     -1734.582383315887
FINAL SINGLE POINT ENERGY     -1734.583257639117
FINAL SINGLE POINT ENERGY     -1734.583758314334
FINAL SINGLE POINT ENERGY     -1734.583910717204
FINAL SINGLE POINT ENERGY     -1734.583956304356
FINAL SINGLE POINT ENERGY     -1734.583967981090
FINAL SINGLE POINT ENERGY     -1734.583972065142
FINAL SINGLE POINT ENERGY     -1734.583974407387
FINAL SINGLE POINT ENERGY     -1734.583975653354
Dispersion correction             ... done (  0.1 sec)
Dispersion correction           -0.099551222
FINAL SINGLE POINT ENERGY     -1734.583976268608
Dispersion correction             ... done (  0.1 sec)
Dispersion correction           -0.099551069
FINAL SINGLE POINT ENERGY     -1734.583976508201
Dispersion correction             ... done (  0.1 sec)
                    ***********************HURRAY********************

CARTESIAN COORDINATES (ANGSTROEM)
---------------------------------
  C     -3.604028   -2.778132    1.201337
  C     -3.829364   -2.522399   -0.162491
  C     -2.889305   -1.792847   -0.905917
  C     -1.720783   -1.311801   -0.280493
  C     -1.486166   -1.583614    1.083265
  C     -2.432155   -2.312514    1.821952
  P     -0.583173   -0.344184   -1.338062
  O     -0.691851   -0.673832   -2.816438
  C     -0.892775    1.415673   -0.950083
  C     -0.646537    2.338665   -1.987028
  C     -0.824114    3.710912   -1.755142
  C     -1.249198    4.163281   -0.493606
  C     -1.509637    3.242386    0.535491
  C     -1.338586    1.867245    0.308545
  C      1.092950   -0.688065   -0.667318
  C      1.583655   -0.086685    0.503500
  C      2.852870   -0.460880    0.968891
  C      3.647257   -1.401897    0.296326
  C      3.154121   -1.975611   -0.887401
  C      1.884052   -1.621215   -1.369030
  S      3.456913    0.283584    2.486544
  O      2.304205    0.570206    3.348513
  O      4.643838   -0.465002    2.943770
  O      3.976003    1.773787    1.956397
  H     -4.341810   -3.352314    1.782544
  H     -4.740942   -2.899045   -0.651306
  H     -3.036409   -1.596728   -1.979316
  H     -0.560084   -1.243368    1.571606
  H     -2.247739   -2.524781    2.886068
  H     -0.329749    1.960645   -2.971420
  H     -0.634017    4.432497   -2.564466
  H     -1.386695    5.240492   -0.313428
  H     -1.855198    3.595332    1.518983
  H     -1.568998    1.145964    1.107687
  H      0.999476    0.664774    1.055350
  H      4.628364   -1.677658    0.709148
  H      3.765434   -2.709940   -1.433375
  H      1.482108   -2.055188   -2.297840
  H      4.928062    1.672260    1.738357

 Multiplicity           Mult            ....    1
 Number of Electrons    NEL             ....  186
 Basis Dimension        Dim             ....  419

ORBITAL ENERGIES
----------------

  NO   OCC          E(Eh)            E(eV)
   0   2.0000     -88.326318     -2403.4813
   1   2.0000     -76.426650     -2079.6749
   2   2.0000     -18.832195      -512.4501
   3   2.0000     -18.790144      -511.3058
   4   2.0000     -18.787371      -511.2303
   5   2.0000     -18.728617      -509.6316
   6   2.0000      -9.968937      -271.2686
   7   2.0000      -9.958242      -270.9775
   8   2.0000      -9.957023      -270.9444
   9   2.0000      -9.950537      -270.7679
  10   2.0000      -9.949987      -270.7529
  11   2.0000      -9.947967      -270.6979
  12   2.0000      -9.939437      -270.4658
  13   2.0000      -9.938465      -270.4394
  14   2.0000      -9.936042      -270.3734
  15   2.0000      -9.935685      -270.3637
  16   2.0000      -9.935210      -270.3508
  17   2.0000      -9.935083      -270.3473
  18   2.0000      -9.934904      -270.3425
  19   2.0000      -9.934763      -270.3386
  20   2.0000      -9.934428      -270.3295
  21   2.0000      -9.934211      -270.3236
  22   2.0000      -9.933676      -270.3091
  23   2.0000      -9.933271      -270.2981
  24   2.0000      -7.891709      -214.7443
  25   2.0000      -6.384808      -173.7394
  26   2.0000      -5.919872      -161.0879
  27   2.0000      -5.917160      -161.0141
  28   2.0000      -5.915844      -160.9783
  29   2.0000      -4.606189      -125.3408
  30   2.0000      -4.605858      -125.3318
  31   2.0000      -4.605768      -125.3293
  32   2.0000      -1.048028       -28.5183
  33   2.0000      -0.940044       -25.5799
  34   2.0000      -0.923627       -25.1332
  35   2.0000      -0.862827       -23.4787
  36   2.0000      -0.808415       -21.9981
  37   2.0000      -0.786421       -21.3996
  38   2.0000      -0.783705       -21.3257
  39   2.0000      -0.720118       -19.5954
  40   2.0000      -0.711036       -19.3483
  41   2.0000      -0.691180       -18.8080
  42   2.0000      -0.683491       -18.5987
  43   2.0000      -0.682941       -18.5838
  44   2.0000      -0.680715       -18.5232
  45   2.0000      -0.626544       -17.0491
  46   2.0000      -0.599954       -16.3256
  47   2.0000      -0.572422       -15.5764
  48   2.0000      -0.559475       -15.2241
  49   2.0000      -0.556819       -15.1518
  50   2.0000      -0.553038       -15.0489
  51   2.0000      -0.547029       -14.8854
  52   2.0000      -0.524727       -14.2785
  53   2.0000      -0.499016       -13.5789
  54   2.0000      -0.480008       -13.0617
  55   2.0000      -0.479424       -13.0458
  56   2.0000      -0.460519       -12.5314
  57   2.0000      -0.446750       -12.1567
  58   2.0000      -0.444758       -12.1025
  59   2.0000      -0.426336       -11.6012
  60   2.0000      -0.422495       -11.4967
  61   2.0000      -0.421267       -11.4632
  62   2.0000      -0.414686       -11.2842
  63   2.0000      -0.411427       -11.1955
  64   2.0000      -0.409764       -11.1503
  65   2.0000      -0.395079       -10.7506
  66   2.0000      -0.390133       -10.6160
  67   2.0000      -0.387594       -10.5470
  68   2.0000      -0.387031       -10.5317
  69   2.0000      -0.386167       -10.5081
  70   2.0000      -0.364563        -9.9203
  71   2.0000      -0.357305        -9.7228
  72   2.0000      -0.347240        -9.4489
  73   2.0000      -0.346366        -9.4251
  74   2.0000      -0.342724        -9.3260
  75   2.0000      -0.327176        -8.9029
  76   2.0000      -0.320468        -8.7204
  77   2.0000      -0.319480        -8.6935
  78   2.0000      -0.316007        -8.5990
  79   2.0000      -0.314197        -8.5497
  80   2.0000      -0.309101        -8.4111
  81   2.0000      -0.304899        -8.2967
  82   2.0000      -0.288389        -7.8475
  83   2.0000      -0.287017        -7.8101
  84   2.0000      -0.275016        -7.4836
  85   2.0000      -0.265854        -7.2343
  86   2.0000      -0.259504        -7.0615
  87   2.0000      -0.252545        -6.8721
  88   2.0000      -0.246043        -6.6952
  89   2.0000      -0.245343        -6.6761
  90   2.0000      -0.243067        -6.6142
  91   2.0000      -0.230158        -6.2629
  92   2.0000      -0.228655        -6.2220
  93   0.0000      -0.092502        -2.5171
  94   0.0000      -0.084900        -2.3102
  95   0.0000      -0.073012        -1.9868
  96   0.0000      -0.063836        -1.7371
  97   0.0000      -0.058763        -1.5990

MULLIKEN ATOMIC CHARGES
-----------------------
   0 C :    0.011487
   1 C :    0.001396
   2 C :    0.012109
   3 C :   -0.123299
   4 C :   -0.015571
   5 C :   -0.000931
   6 P :    0.628034
   7 O :   -0.449864
   8 C :   -0.126516
   9 C :    0.011035
  10 C :    0.002166
  11 C :    0.011728
  12 C :    0.003937
  13 C :   -0.009832
  14 C :   -0.132691
  15 C :    0.024217
  16 C :   -0.100299
  17 C :    0.017849
  18 C :   -0.001249
  19 C :    0.034694
  20 S :    0.846587
  21 O :   -0.388412
  22 O :   -0.402412
  23 O :   -0.313885
  24 H :    0.012774
  25 H :    0.013725
  26 H :    0.023802
  27 H :    0.015232
  28 H :    0.012394
  29 H :    0.022286
  30 H :    0.013105
  31 H :    0.012838
  32 H :    0.011844
  33 H :    0.012617
  34 H :    0.024598
  35 H :    0.026544
  36 H :    0.023985
  37 H :    0.032202
  38 H :    0.201778
Sum of atomic charges:   -0.0000000

LOEWDIN ATOMIC CHARGES
----------------------
   0 C :   -0.018006
   1 C :   -0.024252
   2 C :   -0.014503
   3 C :   -0.184805
   4 C :   -0.035082
   5 C :   -0.025703
   6 P :    0.888628
   7 O :   -0.485877
   8 C :   -0.186123
   9 C :   -0.015474
  10 C :   -0.024224
  11 C :   -0.017165
  12 C :   -0.024037
  13 C :   -0.033849
  14 C :   -0.171213
  15 C :   -0.023163
  16 C :   -0.187265
  17 C :   -0.018429
  18 C :   -0.016552
  19 C :    0.001985
  20 S :    1.161850
  21 O :   -0.450836
  22 O :   -0.470803
  23 O :   -0.250202
  24 H :    0.036469
  25 H :    0.037189
  26 H :    0.039415
  27 H :    0.034768
  28 H :    0.037642
  29 H :    0.038706
  30 H :    0.036912
  31 H :    0.036548
  32 H :    0.037585
  33 H :    0.034477
  34 H :    0.039879
  35 H :    0.042566
  36 H :    0.042383
  37 H :    0.044109
  38 H :    0.086451

  Mayer bond orders larger than 0.100000
B(  0-C ,  1-C ) :   1.3784 B(  0-C ,  5-C ) :   1.3799 B(  0-C , 24-H ) :   0.9763
B(  1-C ,  2-C ) :   1.3760 B(  1-C , 25-H ) :   0.9778 B(  2-C ,  3-C ) :   1.3794
B(  2-C , 26-H ) :   0.9724 B(  3-C ,  4-C ) :   1.3564 B(  3-C ,  6-P ) :   0.8813
B(  4-C ,  5-C ) :   1.3985 B(  4-C , 27-H ) :   0.9639 B(  5-C , 28-H ) :   0.9751
B(  6-P ,  7-O ) :   1.8828 B(  6-P ,  8-C ) :   0.8856 B(  6-P , 14-C ) :   0.8617
B(  8-C ,  9-C ) :   1.3757 B(  8-C , 13-C ) :   1.3618 B(  9-C , 10-C ) :   1.3762
B(  9-C , 29-H ) :   0.9728 B( 10-C , 11-C ) :   1.3777 B( 10-C , 30-H ) :   0.9777
B( 11-C , 12-C ) :   1.3814 B( 11-C , 31-H ) :   0.9761 B( 12-C , 13-C ) :   1.3951
B( 12-C , 32-H ) :   0.9752 B( 13-C , 33-H ) :   0.9622 B( 14-C , 15-C ) :   1.3606
B( 14-C , 19-C ) :   1.3808 B( 15-C , 16-C ) :   1.3614 B( 15-C , 34-H ) :   0.9563
B( 16-C , 17-C ) :   1.3877 B( 16-C , 20-S ) :   0.8192 B( 17-C , 18-C ) :   1.3576
B( 17-C , 35-H ) :   0.9720 B( 18-C , 19-C ) :   1.3673 B( 18-C , 36-H ) :   0.9770
B( 19-C , 37-H ) :   0.9714 B( 20-S , 21-O ) :   1.7421 B( 20-S , 22-O ) :   1.7013
B( 20-S , 23-O ) :   0.9260 B( 21-O , 22-O ) :   0.1032 B( 23-O , 38-H ) :   0.9381

Dispersion correction           -0.099552287
FINAL SINGLE POINT ENERGY     -1734.583976598630

DIPOLE MOMENT
-------------

Method             : SCF
Type of density    : Electron Density
Multiplicity       :   1
Irrep              :   0
Energy             : -1734.4844243117304359 Eh
Relativity type    :
Basis              : AO
                                X                 Y                 Z
Electronic contribution:      9.652031086      -0.889286035       1.851947090
Nuclear contribution   :     -9.661066611       1.048383581      -2.054930950
                        -----------------------------------------
Total Dipole Moment    :     -0.009035525       0.159097546      -0.202983859
                        -----------------------------------------
Magnitude (a.u.)       :      0.258062235
Magnitude (Debye)      :      0.655942072

Rotational constants in cm-1:             0.008620             0.005150             0.004373
Rotational constants in MHz :           258.431614           154.390423           131.101014

                             ****ORCA TERMINATED NORMALLY****
TOTAL RUN TIME: 0 days 0 hours 5 minutes 11 seconds 298 msec
