                         Program Version 6.0.0  -   RELEASE   -
|  1> ! RI BP86 def2-SVP D3BJ TIGHTSCF Opt
|  2> %pal
|  3> nprocs 6
|  4> end
|  5>
|  6> * xyz 0 1
|  7> C     -3.161816   -3.362835   -0.481392
|  8> C     -2.080328   -2.934308   -1.248557
|  9> C     -1.246645   -1.917326   -0.778780
| 10> C     -1.487768   -1.316966    0.465764
| 11> C     -2.579313   -1.761942    1.228318
| 12> C     -3.411391   -2.777824    0.757712
| 13> P     -0.459495    0.011545    1.120599
| 14> O     -0.347888   -0.081661    2.633658
| 15> C     -1.183507    1.586063    0.623618
| 16> C     -0.850001    2.739078    1.352294
| 17> C     -1.370539    3.983373    0.996531
| 18> C     -2.233205    4.090507   -0.091629
| 19> C     -2.577688    2.954539   -0.821488
| 20> C     -2.057130    1.708264   -0.466640
| 21> C      1.172415   -0.119262    0.354497
| 22> C      1.529291    0.603242   -0.793055
| 23> C      2.801735    0.459296   -1.354307
| 24> C      3.736301   -0.407471   -0.775457
| 25> C      3.390060   -1.129364    0.371163
| 26> C      2.117638   -0.984018    0.930023
| 27> C      5.071953   -0.525615   -1.408630
| 28> O      5.439603    0.061835   -2.409216
| 29> O      5.884963   -1.377373   -0.759728
| 30> H     -3.808166   -4.156652   -0.847212
| 31> H     -1.884286   -3.395848   -2.213409
| 32> H     -0.409646   -1.602798   -1.396513
| 33> H     -2.775740   -1.313129    2.201375
| 34> H     -4.251181   -3.114415    1.360492
| 35> H     -0.182403    2.660639    2.209544
| 36> H     -1.106188    4.867137    1.571816
| 37> H     -2.642114    5.059280   -0.367316
| 38> H     -3.256947    3.039034   -1.666390
| 39> H     -2.345811    0.838048   -1.050424
| 40> H      0.826215    1.287201   -1.262751
| 41> H      3.062964    1.029794   -2.244257
| 42> H      4.101633   -1.804556    0.840733
| 43> H      1.858059   -1.544109    1.828293
| 44> H      6.716367   -1.351406   -1.278148
| 45> **                         ****END OF INPUT****
 Total Charge           Charge          ....    0
 Multiplicity           Mult            ....    1
 Number of Electrons    NEL             ....  168
Dispersion correction           -0.091934004
FINAL SINGLE POINT ENERGY     -1299.459026834178
Dispersion correction             ... done (  0.1 sec)
Dispersion correction           -0.091858066
FINAL SINGLE POINT ENERGY     -1299.464754312834
Dispersion correction             ... done (  0.1 sec)
Dispersion correction           -0.091945041
FINAL SINGLE POINT ENERGY     -1299.466020325484
Dispersion correction             ... done (  0.1 sec)
FINAL SINGLE POINT ENERGY     -1299.466328592587
FINAL SINGLE POINT ENERGY     -1299.466334326709
FINAL SINGLE POINT ENERGY     -1299.466433974390
Dispersion correction             ... done (  0.1 sec)
Dispersion correction           -0.091829251
FINAL SINGLE POINT ENERGY     -1299.466438941892
Dispersion correction             ... done (  0.1 sec)
Dispersion correction           -0.091817840
FINAL SINGLE POINT ENERGY     -1299.466440982357
Dispersion correction             ... done (  0.1 sec)
                    ***********************HURRAY********************

CARTESIAN COORDINATES (ANGSTROEM)
---------------------------------
  C     -3.196916   -3.310607   -0.517184
  C     -2.200612   -2.764702   -1.344636
  C     -1.343208   -1.768563   -0.849706
  C     -1.490814   -1.311481    0.475469
  C     -2.479489   -1.871627    1.309756
  C     -3.332277   -2.867595    0.810237
  P     -0.456127    0.004177    1.217301
  O     -0.344478   -0.095912    2.728703
  C     -1.173892    1.588279    0.644940
  C     -1.002373    2.697975    1.497363
  C     -1.499552    3.953680    1.116970
  C     -2.172085    4.103665   -0.108585
  C     -2.358119    2.994442   -0.951350
  C     -1.864562    1.734627   -0.574979
  C      1.168897   -0.125469    0.372728
  C      1.437343    0.437048   -0.892369
  C      2.698853    0.269835   -1.476011
  C      3.703388   -0.449616   -0.796272
  C      3.440255   -0.994092    0.478761
  C      2.177316   -0.829300    1.061736
  C      5.029745   -0.596636   -1.468509
  O      5.305232   -0.147317   -2.569155
  O      5.924415   -1.297462   -0.720533
  H     -3.865455   -4.093717   -0.906650
  H     -2.083950   -3.123185   -2.378869
  H     -0.547206   -1.359898   -1.491268
  H     -2.554609   -1.523278    2.351571
  H     -4.103684   -3.305880    1.461952
  H     -0.489405    2.553638    2.460854
  H     -1.366721    4.820246    1.782764
  H     -2.562602    5.089475   -0.404520
  H     -2.899110    3.108739   -1.903209
  H     -2.033130    0.860621   -1.222895
  H      0.663893    1.021892   -1.413400
  H      2.937549    0.695686   -2.461646
  H      4.233268   -1.541216    1.007122
  H      1.955061   -1.228885    2.063235
  H      6.745164   -1.327587   -1.258585

 Multiplicity           Mult            ....    1
 Number of Electrons    NEL             ....  168
 Basis Dimension        Dim             ....  401

ORBITAL ENERGIES
----------------

  NO   OCC          E(Eh)            E(eV)
   0   2.0000     -76.421672     -2079.5394
   1   2.0000     -18.832295      -512.4528
   2   2.0000     -18.773249      -510.8461
   3   2.0000     -18.723570      -509.4942
   4   2.0000     -10.042662      -273.2747
   5   2.0000      -9.944488      -270.6033
   6   2.0000      -9.941117      -270.5116
   7   2.0000      -9.939125      -270.4574
   8   2.0000      -9.938807      -270.4487
   9   2.0000      -9.938298      -270.4348
  10   2.0000      -9.937707      -270.4188
  11   2.0000      -9.937189      -270.4047
  12   2.0000      -9.936692      -270.3911
  13   2.0000      -9.934390      -270.3285
  14   2.0000      -9.934110      -270.3209
  15   2.0000      -9.933946      -270.3164
  16   2.0000      -9.933646      -270.3083
  17   2.0000      -9.933160      -270.2950
  18   2.0000      -9.932851      -270.2866
  19   2.0000      -9.932616      -270.2802
  20   2.0000      -9.932427      -270.2751
  21   2.0000      -9.932128      -270.2670
  22   2.0000      -9.931857      -270.2596
  23   2.0000      -6.379859      -173.6048
  24   2.0000      -4.601115      -125.2027
  25   2.0000      -4.601004      -125.1997
  26   2.0000      -4.600844      -125.1953
  27   2.0000      -1.009446       -27.4684
  28   2.0000      -0.920500       -25.0481
  29   2.0000      -0.857703       -23.3393
  30   2.0000      -0.792206       -21.5570
  31   2.0000      -0.784397       -21.3445
  32   2.0000      -0.782118       -21.2825
  33   2.0000      -0.711503       -19.3610
  34   2.0000      -0.691017       -18.8035
  35   2.0000      -0.687114       -18.6973
  36   2.0000      -0.681966       -18.5572
  37   2.0000      -0.681374       -18.5411
  38   2.0000      -0.678963       -18.4755
  39   2.0000      -0.614539       -16.7225
  40   2.0000      -0.578728       -15.7480
  41   2.0000      -0.564069       -15.3491
  42   2.0000      -0.555532       -15.1168
  43   2.0000      -0.553496       -15.0614
  44   2.0000      -0.545215       -14.8361
  45   2.0000      -0.534352       -14.5404
  46   2.0000      -0.509587       -13.8666
  47   2.0000      -0.484210       -13.1760
  48   2.0000      -0.477832       -13.0025
  49   2.0000      -0.462748       -12.5920
  50   2.0000      -0.437096       -11.8940
  51   2.0000      -0.423089       -11.5128
  52   2.0000      -0.420398       -11.4396
  53   2.0000      -0.419392       -11.4122
  54   2.0000      -0.411935       -11.2093
  55   2.0000      -0.410655       -11.1745
  56   2.0000      -0.409860       -11.1529
  57   2.0000      -0.403430       -10.9779
  58   2.0000      -0.397330       -10.8119
  59   2.0000      -0.390650       -10.6301
  60   2.0000      -0.387360       -10.5406
  61   2.0000      -0.385874       -10.5002
  62   2.0000      -0.383432       -10.4337
  63   2.0000      -0.362765        -9.8713
  64   2.0000      -0.346714        -9.4346
  65   2.0000      -0.345581        -9.4037
  66   2.0000      -0.344311        -9.3692
  67   2.0000      -0.340080        -9.2541
  68   2.0000      -0.323889        -8.8135
  69   2.0000      -0.318805        -8.6751
  70   2.0000      -0.317233        -8.6323
  71   2.0000      -0.313583        -8.5330
  72   2.0000      -0.309964        -8.4346
  73   2.0000      -0.304266        -8.2795
  74   2.0000      -0.285913        -7.7801
  75   2.0000      -0.255580        -6.9547
  76   2.0000      -0.252781        -6.8785
  77   2.0000      -0.248134        -6.7521
  78   2.0000      -0.244188        -6.6447
  79   2.0000      -0.243564        -6.6277
  80   2.0000      -0.240609        -6.5473
  81   2.0000      -0.240478        -6.5437
  82   2.0000      -0.224664        -6.1134
  83   2.0000      -0.223945        -6.0938
  84   0.0000      -0.099011        -2.6942
  85   0.0000      -0.072760        -1.9799
  86   0.0000      -0.064360        -1.7513
  87   0.0000      -0.061422        -1.6714
  88   0.0000      -0.055455        -1.5090

MULLIKEN ATOMIC CHARGES
-----------------------
   0 C :    0.010417
   1 C :   -0.000140
   2 C :   -0.008133
   3 C :   -0.127951
   4 C :    0.012668
   5 C :    0.001456
   6 P :    0.632834
   7 O :   -0.451524
   8 C :   -0.129058
   9 C :    0.012795
  10 C :    0.001727
  11 C :    0.010655
  12 C :    0.000525
  13 C :   -0.008414
  14 C :   -0.114879
  15 C :   -0.001911
  16 C :   -0.000857
  17 C :   -0.031121
  18 C :    0.010105
  19 C :    0.014290
  20 C :    0.120997
  21 O :   -0.183162
  22 O :   -0.154412
  23 H :    0.011333
  24 H :    0.008016
  25 H :    0.005762
  26 H :    0.023619
  27 H :    0.012996
  28 H :    0.023328
  29 H :    0.013035
  30 H :    0.011389
  31 H :    0.007693
  32 H :    0.006488
  33 H :    0.010153
  34 H :    0.018282
  35 H :    0.019016
  36 H :    0.025901
  37 H :    0.186085
Sum of atomic charges:   -0.0000000

LOEWDIN ATOMIC CHARGES
----------------------
   0 C :   -0.019473
   1 C :   -0.028374
   2 C :   -0.035804
   3 C :   -0.183489
   4 C :   -0.013962
   5 C :   -0.024688
   6 P :    0.887627
   7 O :   -0.486402
   8 C :   -0.184002
   9 C :   -0.014128
  10 C :   -0.024587
  11 C :   -0.019252
  12 C :   -0.028359
  13 C :   -0.035572
  14 C :   -0.167467
  15 C :   -0.033885
  16 C :    0.006449
  17 C :   -0.066542
  18 C :   -0.000605
  19 C :   -0.013190
  20 C :    0.063036
  21 O :   -0.166919
  22 O :   -0.030273
  23 H :    0.035792
  24 H :    0.035598
  25 H :    0.032296
  26 H :    0.039396
  27 H :    0.036831
  28 H :    0.039229
  29 H :    0.036855
  30 H :    0.035829
  31 H :    0.035462
  32 H :    0.032609
  33 H :    0.034927
  34 H :    0.042446
  35 H :    0.040668
  36 H :    0.041220
  37 H :    0.100702

  Mayer bond orders larger than 0.100000
B(  0-C ,  1-C ) :   1.3811 B(  0-C ,  5-C ) :   1.3782 B(  0-C , 23-H ) :   0.9761
B(  1-C ,  2-C ) :   1.3921 B(  1-C , 24-H ) :   0.9753 B(  2-C ,  3-C ) :   1.3618
B(  2-C , 25-H ) :   0.9644 B(  3-C ,  4-C ) :   1.3795 B(  3-C ,  6-P ) :   0.8803
B(  4-C ,  5-C ) :   1.3757 B(  4-C , 26-H ) :   0.9721 B(  5-C , 27-H ) :   0.9778
B(  6-P ,  7-O ) :   1.8811 B(  6-P ,  8-C ) :   0.8808 B(  6-P , 14-C ) :   0.8706
B(  8-C ,  9-C ) :   1.3778 B(  8-C , 13-C ) :   1.3632 B(  9-C , 10-C ) :   1.3763
B(  9-C , 28-H ) :   0.9723 B( 10-C , 11-C ) :   1.3781 B( 10-C , 29-H ) :   0.9778
B( 11-C , 12-C ) :   1.3812 B( 11-C , 30-H ) :   0.9760 B( 12-C , 13-C ) :   1.3907
B( 12-C , 31-H ) :   0.9753 B( 13-C , 32-H ) :   0.9643 B( 14-C , 15-C ) :   1.3451
B( 14-C , 19-C ) :   1.3697 B( 15-C , 16-C ) :   1.3694 B( 15-C , 33-H ) :   0.9665
B( 16-C , 17-C ) :   1.3746 B( 16-C , 34-H ) :   0.9753 B( 17-C , 18-C ) :   1.3430
B( 17-C , 20-C ) :   0.9309 B( 18-C , 19-C ) :   1.3533 B( 18-C , 35-H ) :   0.9784
B( 19-C , 36-H ) :   0.9726 B( 20-C , 21-O ) :   2.1015 B( 20-C , 22-O ) :   1.2653
B( 22-O , 37-H ) :   0.9369

Dispersion correction           -0.091812174
FINAL SINGLE POINT ENERGY     -1299.466441453644

DIPOLE MOMENT
-------------

Method             : SCF
Type of density    : Electron Density
Multiplicity       :   1
Irrep              :   0
Energy             : -1299.3746292800765332 Eh
Relativity type    :
Basis              : AO
                                X                 Y                 Z
Electronic contribution:      8.699251052      -1.229541329       2.900260725
Nuclear contribution   :     -9.154944352       1.120920457      -3.752417266
                        -----------------------------------------
Total Dipole Moment    :     -0.455693300      -0.108620871      -0.852156541
                        -----------------------------------------
Magnitude (a.u.)       :      0.972432850
Magnitude (Debye)      :      2.471727872

Rotational constants in cm-1:             0.010190             0.005361             0.004278
Rotational constants in MHz :           305.480289           160.722820           128.246847

                             ****ORCA TERMINATED NORMALLY****
TOTAL RUN TIME: 0 days 0 hours 3 minutes 0 seconds 450 msec
