                         Program Version 6.0.0  -   RELEASE   -
|  1> ! RIJCOSX M062X def2-TZVP D3ZERO NormalSCF
|  2> %pal
|  3> nprocs 6
|  4> end
|  5>
|  6> * xyz 0 1
|  7>   C          -3.33219458798867     -2.71158651429657      1.90599151616573
|  8>   C          -4.09204300038962     -1.87386762849146      1.07116635202913
|  9>   C          -3.45412819419021     -1.07107810540145      0.11334169242044
| 10>   C          -2.04695025540574     -1.08145197836151     -0.00958638216836
| 11>   C          -1.29148818998959     -1.92538429863149      0.83215236951149
| 12>   C          -1.93305832453331     -2.73748083402395      1.78177563679135
| 13>   P          -1.31151204859319      0.04943347999888     -1.27733488311428
| 14>   C          -1.05111504155902      1.59059339994774     -0.28798677184364
| 15>   C          -1.16948576374590      1.65442136575965      1.11586876988802
| 16>   C          -0.92172855158181      2.86065106742198      1.79155203731574
| 17>   C          -0.54901057649771      4.01024847154322      1.07559355325666
| 18>   C          -0.43346204514424      3.95523163730140     -0.32424133059970
| 19>   C          -0.69331524895561      2.75530554920615     -1.00303354520007
| 20>   C           0.42561298398676     -0.60049000852324     -1.33896830406803
| 21>   C           1.49609305164095     -0.01307756299860     -0.63918258725639
| 22>   C           2.77675092851507     -0.57523964462990     -0.75686992065503
| 23>   C           3.03040312755680     -1.71455384776553     -1.53398098066463
| 24>   C           1.95686657017414     -2.29830940396800     -2.22739882606663
| 25>   C           0.67316446236019     -1.73938492795362     -2.14077860144629
| 26>   S           4.13266820222150      0.19036793138561      0.13817313175524
| 27>   O           5.29339827447968     -0.72266604386158      0.11524448834462
| 28>   O           3.60626402390687      0.78823060356240      1.36962569843185
| 29>   O           4.50128845036654      1.48524893145205     -0.84502500917522
| 30>   H          -3.83203883054058     -3.34782624940910      2.65237499477394
| 31>   H          -5.18911050598841     -1.85232314227961      1.16060308049504
| 32>   H          -4.05168039486865     -0.42377413141962     -0.54890178847652
| 33>   H          -0.19454356161935     -1.94337209818337      0.74998939459380
| 34>   H          -1.33285690917315     -3.39106396039891      2.43353281298653
| 35>   H          -1.44969337696333      0.75425023188329      1.68308078815474
| 36>   H          -1.01277830491315      2.89912032402623      2.88796042424950
| 37>   H          -0.34927075343635      4.95204614080903      1.60905818965714
| 38>   H          -0.14529540039096      4.85389232290581     -0.89100575619631
| 39>   H          -0.61250281285994      2.71507857914834     -2.10157173942098
| 40>   H           1.34034253880862      0.86143818390828      0.00891291065378
| 41>   H           4.04662992404989     -2.13168192670942     -1.57629850368215
| 42>   H           2.12652549339677     -3.19478106502806     -2.84286477923763
| 43>   H          -0.16084674023272     -2.19752592491862     -2.69645576921989
| 44>   H           5.20410238809741      1.17136407699357     -1.45451236298298
| 45> **                         ****END OF INPUT****

CARTESIAN COORDINATES (ANGSTROEM)
---------------------------------
  C     -3.332195   -2.711587    1.905992
  C     -4.092043   -1.873868    1.071166
  C     -3.454128   -1.071078    0.113342
  C     -2.046950   -1.081452   -0.009586
  C     -1.291488   -1.925384    0.832152
  C     -1.933058   -2.737481    1.781776
  P     -1.311512    0.049433   -1.277335
  C     -1.051115    1.590593   -0.287987
  C     -1.169486    1.654421    1.115869
  C     -0.921729    2.860651    1.791552
  C     -0.549011    4.010248    1.075594
  C     -0.433462    3.955232   -0.324241
  C     -0.693315    2.755306   -1.003034
  C      0.425613   -0.600490   -1.338968
  C      1.496093   -0.013078   -0.639183
  C      2.776751   -0.575240   -0.756870
  C      3.030403   -1.714554   -1.533981
  C      1.956867   -2.298309   -2.227399
  C      0.673164   -1.739385   -2.140779
  S      4.132668    0.190368    0.138173
  O      5.293398   -0.722666    0.115244
  O      3.606264    0.788231    1.369626
  O      4.501288    1.485249   -0.845025
  H     -3.832039   -3.347826    2.652375
  H     -5.189111   -1.852323    1.160603
  H     -4.051680   -0.423774   -0.548902
  H     -0.194544   -1.943372    0.749989
  H     -1.332857   -3.391064    2.433533
  H     -1.449693    0.754250    1.683081
  H     -1.012778    2.899120    2.887960
  H     -0.349271    4.952046    1.609058
  H     -0.145295    4.853892   -0.891006
  H     -0.612503    2.715079   -2.101572
  H      1.340343    0.861438    0.008913
  H      4.046630   -2.131682   -1.576299
  H      2.126525   -3.194781   -2.842865
  H     -0.160847   -2.197526   -2.696456
  H      5.204102    1.171364   -1.454512

 Total Charge           Charge          ....    0
 Multiplicity           Mult            ....    1
 Number of Electrons    NEL             ....  178
 Basis Dimension        Dim             ....  815

ORBITAL ENERGIES
----------------

  NO   OCC          E(Eh)            E(eV)
   0   2.0000     -90.137168     -2452.7571
   1   2.0000     -78.044044     -2123.6864
   2   2.0000     -19.689310      -535.7734
   3   2.0000     -19.643404      -534.5242
   4   2.0000     -19.639358      -534.4141
   5   2.0000     -10.600718      -288.4602
   6   2.0000     -10.583023      -287.9787
   7   2.0000     -10.579702      -287.8883
   8   2.0000     -10.578589      -287.8580
   9   2.0000     -10.577636      -287.8321
  10   2.0000     -10.576067      -287.7894
  11   2.0000     -10.564477      -287.4740
  12   2.0000     -10.561329      -287.3884
  13   2.0000     -10.560592      -287.3683
  14   2.0000     -10.559443      -287.3370
  15   2.0000     -10.559251      -287.3318
  16   2.0000     -10.558292      -287.3057
  17   2.0000     -10.558033      -287.2987
  18   2.0000     -10.557806      -287.2925
  19   2.0000     -10.555949      -287.2420
  20   2.0000     -10.555531      -287.2306
  21   2.0000     -10.555136      -287.2199
  22   2.0000     -10.554099      -287.1916
  23   2.0000      -8.461215      -230.2414
  24   2.0000      -6.860065      -186.6719
  25   2.0000      -6.384911      -173.7423
  26   2.0000      -6.381911      -173.6606
  27   2.0000      -6.380894      -173.6330
  28   2.0000      -4.974680      -135.3679
  29   2.0000      -4.974275      -135.3569
  30   2.0000      -4.974229      -135.3556
  31   2.0000      -1.258908       -34.2566
  32   2.0000      -1.156849       -31.4795
  33   2.0000      -1.133159       -30.8348
  34   2.0000      -0.989299       -26.9202
  35   2.0000      -0.966095       -26.2888
  36   2.0000      -0.959904       -26.1203
  37   2.0000      -0.889829       -24.2135
  38   2.0000      -0.878174       -23.8963
  39   2.0000      -0.855155       -23.2699
  40   2.0000      -0.848672       -23.0935
  41   2.0000      -0.846293       -23.0288
  42   2.0000      -0.841629       -22.9019
  43   2.0000      -0.777028       -21.1440
  44   2.0000      -0.747173       -20.3316
  45   2.0000      -0.709857       -19.3162
  46   2.0000      -0.696805       -18.9610
  47   2.0000      -0.693633       -18.8747
  48   2.0000      -0.688179       -18.7263
  49   2.0000      -0.681838       -18.5538
  50   2.0000      -0.651094       -17.7172
  51   2.0000      -0.626657       -17.0522
  52   2.0000      -0.611126       -16.6296
  53   2.0000      -0.595734       -16.2107
  54   2.0000      -0.578580       -15.7440
  55   2.0000      -0.573942       -15.6178
  56   2.0000      -0.570559       -15.5257
  57   2.0000      -0.550660       -14.9842
  58   2.0000      -0.531564       -14.4646
  59   2.0000      -0.529741       -14.4150
  60   2.0000      -0.525014       -14.2864
  61   2.0000      -0.520823       -14.1723
  62   2.0000      -0.519098       -14.1254
  63   2.0000      -0.518168       -14.1001
  64   2.0000      -0.495956       -13.4956
  65   2.0000      -0.492924       -13.4131
  66   2.0000      -0.489983       -13.3331
  67   2.0000      -0.481373       -13.0988
  68   2.0000      -0.470228       -12.7955
  69   2.0000      -0.461812       -12.5665
  70   2.0000      -0.447391       -12.1741
  71   2.0000      -0.446622       -12.1532
  72   2.0000      -0.441049       -12.0016
  73   2.0000      -0.436577       -11.8799
  74   2.0000      -0.428303       -11.6547
  75   2.0000      -0.414051       -11.2669
  76   2.0000      -0.412536       -11.2257
  77   2.0000      -0.408951       -11.1281
  78   2.0000      -0.401282       -10.9194
  79   2.0000      -0.396557       -10.7909
  80   2.0000      -0.388470       -10.5708
  81   2.0000      -0.384452       -10.4615
  82   2.0000      -0.349621        -9.5137
  83   2.0000      -0.338719        -9.2170
  84   2.0000      -0.328435        -8.9372
  85   2.0000      -0.321042        -8.7360
  86   2.0000      -0.316283        -8.6065
  87   2.0000      -0.312689        -8.5087
  88   2.0000      -0.279633        -7.6092
  89   0.0000      -0.033529        -0.9124
  90   0.0000      -0.018855        -0.5131
  91   0.0000      -0.009685        -0.2635
  92   0.0000       0.004711         0.1282
  93   0.0000       0.006040         0.1644

MULLIKEN ATOMIC CHARGES
-----------------------
   0 C :   -0.134042
   1 C :   -0.148534
   2 C :   -0.132877
   3 C :   -0.096907
   4 C :   -0.141894
   5 C :   -0.157541
   6 P :    0.129915
   7 C :   -0.100929
   8 C :   -0.127512
   9 C :   -0.152877
  10 C :   -0.126985
  11 C :   -0.139427
  12 C :   -0.149462
  13 C :   -0.093220
  14 C :   -0.160242
  15 C :   -0.078994
  16 C :   -0.135249
  17 C :   -0.133789
  18 C :   -0.134133
  19 S :    0.894204
  20 O :   -0.477512
  21 O :   -0.451317
  22 O :   -0.422447
  23 H :    0.149238
  24 H :    0.148152
  25 H :    0.156577
  26 H :    0.181252
  27 H :    0.150920
  28 H :    0.185047
  29 H :    0.148615
  30 H :    0.148353
  31 H :    0.147318
  32 H :    0.155294
  33 H :    0.235653
  34 H :    0.192187
  35 H :    0.156733
  36 H :    0.163679
  37 H :    0.352754
Sum of atomic charges:   -0.0000000

LOEWDIN ATOMIC CHARGES
----------------------
   0 C :   -0.137092
   1 C :   -0.140403
   2 C :   -0.140768
   3 C :   -0.278390
   4 C :   -0.137945
   5 C :   -0.139565
   6 P :    0.704739
   7 C :   -0.281633
   8 C :   -0.133944
   9 C :   -0.135277
  10 C :   -0.133301
  11 C :   -0.139403
  12 C :   -0.144428
  13 C :   -0.263576
  14 C :   -0.110743
  15 C :   -0.274370
  16 C :   -0.120452
  17 C :   -0.129563
  18 C :   -0.118466
  19 S :    0.723460
  20 O :   -0.316446
  21 O :   -0.283553
  22 O :   -0.204341
  23 H :    0.148415
  24 H :    0.148941
  25 H :    0.151020
  26 H :    0.156955
  27 H :    0.149629
  28 H :    0.158375
  29 H :    0.149743
  30 H :    0.148782
  31 H :    0.148978
  32 H :    0.150390
  33 H :    0.171293
  34 H :    0.160434
  35 H :    0.153388
  36 H :    0.155732
  37 H :    0.183382

  Mayer bond orders larger than 0.100000
B(  0-C ,  1-C ) :   1.4280 B(  0-C ,  5-C ) :   1.4380 B(  0-C , 23-H ) :   0.9455
B(  1-C ,  2-C ) :   1.4617 B(  1-C , 24-H ) :   0.9471 B(  2-C ,  3-C ) :   1.4077
B(  2-C , 25-H ) :   0.9324 B(  3-C ,  4-C ) :   1.3166 B(  3-C ,  6-P ) :   0.9389
B(  4-C ,  5-C ) :   1.4672 B(  4-C , 26-H ) :   0.9305 B(  5-C , 27-H ) :   0.9419
B(  6-P ,  7-C ) :   0.9358 B(  6-P , 13-C ) :   0.9286 B(  7-C ,  8-C ) :   1.3422
B(  7-C , 12-C ) :   1.3943 B(  8-C ,  9-C ) :   1.4663 B(  8-C , 28-H ) :   0.9248
B(  9-C , 10-C ) :   1.4382 B(  9-C , 29-H ) :   0.9413 B( 10-C , 11-C ) :   1.4280
B( 10-C , 30-H ) :   0.9451 B( 11-C , 12-C ) :   1.4621 B( 11-C , 31-H ) :   0.9463
B( 12-C , 32-H ) :   0.9364 B( 13-C , 14-C ) :   1.3712 B( 13-C , 18-C ) :   1.4008
B( 14-C , 15-C ) :   1.4241 B( 14-C , 33-H ) :   0.8710 B( 15-C , 16-C ) :   1.4232
B( 15-C , 19-S ) :   0.8852 B( 16-C , 17-C ) :   1.4235 B( 16-C , 34-H ) :   0.9021
B( 17-C , 18-C ) :   1.4625 B( 17-C , 35-H ) :   0.9471 B( 18-C , 36-H ) :   0.9324
B( 19-S , 20-O ) :   1.8195 B( 19-S , 21-O ) :   1.8688 B( 19-S , 22-O ) :   1.0446
B( 22-O , 37-H ) :   0.8503

Dispersion correction           -0.002865670
FINAL SINGLE POINT ENERGY     -1660.103951541944

DIPOLE MOMENT
-------------

Method             : SCF
Type of density    : Electron Density
Multiplicity       :   1
Irrep              :   0
Energy             : -1660.1010858717827432 Eh
Relativity type    :
Basis              : AO
                                X                 Y                 Z
Electronic contribution:      9.778667042       0.392974793      -4.282147797
Nuclear contribution   :    -10.690534641      -0.823172314       3.338109203
                        -----------------------------------------
Total Dipole Moment    :     -0.911867599      -0.430197521      -0.944038594
                        -----------------------------------------
Magnitude (a.u.)       :      1.381224563
Magnitude (Debye)      :      3.510793832

Rotational constants in cm-1:             0.010046             0.005521             0.004394
Rotational constants in MHz :           301.180734           165.519648           131.726539

                             ****ORCA TERMINATED NORMALLY****
TOTAL RUN TIME: 0 days 0 hours 2 minutes 31 seconds 854 msec
