                         Program Version 6.0.0  -   RELEASE   -
|  1> ! RIJONX B3LYP def2-SVP D3BJ TIGHTSCF Opt
|  2> %pal
|  3> nprocs 6
|  4> end
|  5>
|  6> * xyz 0 1
|  7> C     -5.080952   -1.330850    0.058949
|  8> C     -3.613376   -1.616821   -0.059218
|  9> C     -2.687013   -0.894718    0.708940
| 10> C     -1.300318   -1.113791    0.593832
| 11> C     -0.864858   -2.085351   -0.317177
| 12> C     -1.778426   -2.800439   -1.096815
| 13> C     -3.145457   -2.563036   -0.973536
| 14> P     -0.190215   -0.125440    1.650084
| 15> C     -0.125782    1.500785    0.825537
| 16> C      0.439151    2.574536    1.534419
| 17> C      0.530175    3.846526    0.965314
| 18> C      0.051663    4.070709   -0.323000
| 19> C     -0.529928    3.027058   -1.047702
| 20> C     -0.602624    1.748057   -0.471830
| 21> C     -1.016811    3.251717   -2.448957
| 22> C      1.464639   -0.827374    1.349735
| 23> C      1.877902   -1.903047    2.153926
| 24> C      3.128876   -2.497591    1.975928
| 25> C      3.993906   -2.022704    0.993437
| 26> C      3.618539   -0.943422    0.189035
| 27> C      2.352073   -0.362596    0.366101
| 28> C      4.531245   -0.446565   -0.893160
| 29> H     -5.358636   -0.515882   -0.616505
| 30> H     -5.341397   -1.047004    1.084025
| 31> H     -5.674233   -2.216165   -0.192926
| 32> H     -3.056961   -0.143683    1.406582
| 33> H      0.191715   -2.303227   -0.448138
| 34> H     -1.418143   -3.543984   -1.803233
| 35> H     -3.842065   -3.123362   -1.592664
| 36> H      0.824136    2.427637    2.542115
| 37> H      0.977846    4.660854    1.528874
| 38> H      0.134421    5.064229   -0.757345
| 39> H     -1.033469    0.942731   -1.062695
| 40> H     -1.882645    2.617547   -2.666720
| 41> H     -1.331653    4.290647   -2.592795
| 42> H     -0.219834    3.022336   -3.162903
| 43> H      1.221315   -2.296176    2.928245
| 44> H      3.425536   -3.333258    2.604269
| 45> H      4.962862   -2.498207    0.860634
| 46> H      2.068176    0.460239   -0.286118
| 47> H      5.580057   -0.626504   -0.634685
| 48> H      4.307110   -0.957051   -1.834794
| 49> H      4.413451    0.632640   -1.037064
| 50> **                         ****END OF INPUT****
 Total Charge           Charge          ....    0
 Multiplicity           Mult            ....    1
 Number of Electrons    NEL             ....  162
Dispersion correction           -0.101894907
FINAL SINGLE POINT ENERGY     -1153.082261406675
Dispersion correction             ... done (  0.1 sec)
Dispersion correction           -0.102587265
FINAL SINGLE POINT ENERGY     -1153.085477874221
Dispersion correction             ... done (  0.1 sec)
Dispersion correction           -0.102703905
FINAL SINGLE POINT ENERGY     -1153.086144014464
Dispersion correction             ... done (  0.1 sec)
FINAL SINGLE POINT ENERGY     -1153.086302471499
FINAL SINGLE POINT ENERGY     -1153.086324597392
Dispersion correction             ... done (  0.1 sec)
Dispersion correction           -0.102644795
FINAL SINGLE POINT ENERGY     -1153.086330100284
Dispersion correction             ... done (  0.1 sec)
Dispersion correction           -0.102650850
FINAL SINGLE POINT ENERGY     -1153.086331178464
Dispersion correction             ... done (  0.1 sec)
                    ***********************HURRAY********************

CARTESIAN COORDINATES (ANGSTROEM)
---------------------------------
  C     -5.094580   -1.367398    0.124889
  C     -3.611112   -1.595518   -0.027040
  C     -2.694346   -0.922085    0.791468
  C     -1.307597   -1.085109    0.639467
  C     -0.830745   -1.966883   -0.341681
  C     -1.733754   -2.659131   -1.153229
  C     -3.109305   -2.473583   -1.001030
  P     -0.221113   -0.105800    1.770912
  C     -0.121328    1.504233    0.864940
  C      0.456343    2.588749    1.546503
  C      0.578945    3.827645    0.916457
  C      0.112262    4.001900   -0.389611
  C     -0.477502    2.937792   -1.087357
  C     -0.586030    1.694923   -0.443877
  C     -0.956614    3.108395   -2.507916
  C      1.438741   -0.830538    1.398710
  C      1.818198   -1.971022    2.126549
  C      3.052781   -2.575865    1.888190
  C      3.926312   -2.040717    0.937262
  C      3.574940   -0.897242    0.205024
  C      2.325963   -0.305013    0.448989
  C      4.499542   -0.329740   -0.843546
  H     -5.427619   -0.512489   -0.489841
  H     -5.363021   -1.141156    1.168291
  H     -5.673987   -2.246404   -0.196701
  H     -3.069279   -0.247791    1.568560
  H      0.243185   -2.111517   -0.471610
  H     -1.359330   -3.350404   -1.913210
  H     -3.806333   -3.022049   -1.641291
  H      0.808989    2.458370    2.573642
  H      1.029812    4.668456    1.450397
  H      0.200671    4.979543   -0.872339
  H     -1.041091    0.858767   -0.979671
  H     -1.823193    2.463492   -2.720252
  H     -1.242988    4.150711   -2.716152
  H     -0.164537    2.836440   -3.227924
  H      1.142721   -2.382153    2.882244
  H      3.343556   -3.463580    2.456285
  H      4.897988   -2.512993    0.765697
  H      2.041689    0.585266   -0.116709
  H      5.553183   -0.556417   -0.619361
  H      4.277769   -0.754869   -1.838454
  H      4.391813    0.762783   -0.925673

 Multiplicity           Mult            ....    1
 Number of Electrons    NEL             ....  162
 Basis Dimension        Dim             ....  417

ORBITAL ENERGIES
----------------

  NO   OCC          E(Eh)            E(eV)
   0   2.0000     -77.046347     -2096.5377
   1   2.0000     -10.192877      -277.3623
   2   2.0000     -10.192546      -277.3533
   3   2.0000     -10.192075      -277.3405
   4   2.0000     -10.187093      -277.2049
   5   2.0000     -10.187021      -277.2029
   6   2.0000     -10.186704      -277.1943
   7   2.0000     -10.186530      -277.1896
   8   2.0000     -10.186084      -277.1775
   9   2.0000     -10.186074      -277.1772
  10   2.0000     -10.185185      -277.1530
  11   2.0000     -10.184954      -277.1467
  12   2.0000     -10.184871      -277.1444
  13   2.0000     -10.184705      -277.1399
  14   2.0000     -10.184454      -277.1331
  15   2.0000     -10.184362      -277.1306
  16   2.0000     -10.184219      -277.1267
  17   2.0000     -10.184180      -277.1256
  18   2.0000     -10.184050      -277.1221
  19   2.0000     -10.183236      -277.0999
  20   2.0000     -10.182309      -277.0747
  21   2.0000     -10.181957      -277.0651
  22   2.0000      -6.542003      -178.0169
  23   2.0000      -4.707443      -128.0960
  24   2.0000      -4.707426      -128.0956
  25   2.0000      -4.704534      -128.0169
  26   2.0000      -0.850544       -23.1445
  27   2.0000      -0.843433       -22.9510
  28   2.0000      -0.843211       -22.9449
  29   2.0000      -0.771709       -20.9993
  30   2.0000      -0.760540       -20.6953
  31   2.0000      -0.758648       -20.6439
  32   2.0000      -0.747342       -20.3362
  33   2.0000      -0.730396       -19.8751
  34   2.0000      -0.727444       -19.7948
  35   2.0000      -0.675200       -18.3731
  36   2.0000      -0.674639       -18.3579
  37   2.0000      -0.673370       -18.3233
  38   2.0000      -0.639662       -17.4061
  39   2.0000      -0.596409       -16.2291
  40   2.0000      -0.591444       -16.0940
  41   2.0000      -0.584440       -15.9034
  42   2.0000      -0.573678       -15.6106
  43   2.0000      -0.566819       -15.4239
  44   2.0000      -0.533430       -14.5154
  45   2.0000      -0.502097       -13.6628
  46   2.0000      -0.500924       -13.6308
  47   2.0000      -0.486045       -13.2260
  48   2.0000      -0.462343       -12.5810
  49   2.0000      -0.461074       -12.5465
  50   2.0000      -0.460767       -12.5381
  51   2.0000      -0.437621       -11.9083
  52   2.0000      -0.435079       -11.8391
  53   2.0000      -0.427824       -11.6417
  54   2.0000      -0.417511       -11.3611
  55   2.0000      -0.416841       -11.3428
  56   2.0000      -0.416706       -11.3391
  57   2.0000      -0.407130       -11.0786
  58   2.0000      -0.406163       -11.0522
  59   2.0000      -0.404917       -11.0183
  60   2.0000      -0.400270       -10.8919
  61   2.0000      -0.399157       -10.8616
  62   2.0000      -0.382895       -10.4191
  63   2.0000      -0.381663       -10.3856
  64   2.0000      -0.380032       -10.3412
  65   2.0000      -0.362007        -9.8507
  66   2.0000      -0.353672        -9.6239
  67   2.0000      -0.353521        -9.6198
  68   2.0000      -0.350660        -9.5419
  69   2.0000      -0.339602        -9.2410
  70   2.0000      -0.338636        -9.2148
  71   2.0000      -0.338437        -9.2093
  72   2.0000      -0.315787        -8.5930
  73   2.0000      -0.315467        -8.5843
  74   2.0000      -0.270359        -7.3569
  75   2.0000      -0.255351        -6.9484
  76   2.0000      -0.252495        -6.8707
  77   2.0000      -0.246680        -6.7125
  78   2.0000      -0.242036        -6.5861
  79   2.0000      -0.239680        -6.5220
  80   2.0000      -0.209944        -5.7129
  81   0.0000      -0.019969        -0.5434
  82   0.0000      -0.019852        -0.5402
  83   0.0000      -0.015927        -0.4334
  84   0.0000      -0.003645        -0.0992
  85   0.0000       0.001077         0.0293

MULLIKEN ATOMIC CHARGES
-----------------------
   0 C :    0.079802
   1 C :   -0.035929
   2 C :   -0.010561
   3 C :   -0.155696
   4 C :    0.013156
   5 C :    0.031158
   6 C :   -0.008651
   7 P :    0.359005
   8 C :   -0.156736
   9 C :    0.020298
  10 C :    0.026434
  11 C :   -0.012753
  12 C :   -0.031426
  13 C :   -0.014564
  14 C :    0.080250
  15 C :   -0.155936
  16 C :    0.019624
  17 C :    0.026895
  18 C :   -0.012237
  19 C :   -0.030480
  20 C :   -0.013706
  21 C :    0.079371
  22 H :    0.029846
  23 H :    0.016537
  24 H :    0.011695
  25 H :   -0.031868
  26 H :   -0.004007
  27 H :   -0.022343
  28 H :   -0.033503
  29 H :   -0.019486
  30 H :   -0.019658
  31 H :   -0.033802
  32 H :   -0.015773
  33 H :    0.017371
  34 H :    0.010733
  35 H :    0.028962
  36 H :   -0.019486
  37 H :   -0.019623
  38 H :   -0.033614
  39 H :   -0.017091
  40 H :    0.010947
  41 H :    0.028895
  42 H :    0.017950
Sum of atomic charges:   -0.0000000

LOEWDIN ATOMIC CHARGES
----------------------
   0 C :   -0.044948
   1 C :   -0.025088
   2 C :   -0.034437
   3 C :   -0.169930
   4 C :   -0.037935
   5 C :   -0.024215
   6 C :   -0.029330
   7 P :    0.513887
   8 C :   -0.170127
   9 C :   -0.036150
  10 C :   -0.024298
  11 C :   -0.029428
  12 C :   -0.025235
  13 C :   -0.035452
  14 C :   -0.045196
  15 C :   -0.170490
  16 C :   -0.036229
  17 C :   -0.024158
  18 C :   -0.028853
  19 C :   -0.024931
  20 C :   -0.034669
  21 C :   -0.045244
  22 H :    0.036303
  23 H :    0.030668
  24 H :    0.028739
  25 H :    0.020880
  26 H :    0.028219
  27 H :    0.026117
  28 H :    0.022844
  29 H :    0.023599
  30 H :    0.026722
  31 H :    0.022819
  32 H :    0.026048
  33 H :    0.030802
  34 H :    0.028398
  35 H :    0.035937
  36 H :    0.023533
  37 H :    0.026761
  38 H :    0.022906
  39 H :    0.025852
  40 H :    0.028503
  41 H :    0.035851
  42 H :    0.030955

  Mayer bond orders larger than 0.100000
B(  0-C ,  1-C ) :   1.0625 B(  0-C , 22-H ) :   0.9516 B(  0-C , 23-H ) :   0.9583
B(  0-C , 24-H ) :   0.9574 B(  1-C ,  2-C ) :   1.4016 B(  1-C ,  6-C ) :   1.3813
B(  2-C ,  3-C ) :   1.3534 B(  2-C , 25-H ) :   0.9822 B(  3-C ,  4-C ) :   1.3855
B(  3-C ,  7-P ) :   0.9285 B(  4-C ,  5-C ) :   1.3734 B(  4-C , 26-H ) :   0.9804
B(  5-C ,  6-C ) :   1.3737 B(  5-C , 27-H ) :   0.9825 B(  6-C , 28-H ) :   0.9850
B(  7-P ,  8-C ) :   0.9294 B(  7-P , 15-C ) :   0.9292 B(  8-C ,  9-C ) :   1.3675
B(  8-C , 13-C ) :   1.3692 B(  9-C , 10-C ) :   1.3973 B(  9-C , 29-H ) :   0.9829
B( 10-C , 11-C ) :   1.3667 B( 10-C , 30-H ) :   0.9833 B( 11-C , 12-C ) :   1.3907
B( 11-C , 31-H ) :   0.9845 B( 12-C , 13-C ) :   1.3720 B( 12-C , 14-C ) :   1.0642
B( 13-C , 32-H ) :   0.9839 B( 14-C , 33-H ) :   0.9577 B( 14-C , 34-H ) :   0.9568
B( 14-C , 35-H ) :   0.9517 B( 15-C , 16-C ) :   1.3679 B( 15-C , 20-C ) :   1.3694
B( 16-C , 17-C ) :   1.3966 B( 16-C , 36-H ) :   0.9829 B( 17-C , 18-C ) :   1.3676
B( 17-C , 37-H ) :   0.9832 B( 18-C , 19-C ) :   1.3905 B( 18-C , 38-H ) :   0.9844
B( 19-C , 20-C ) :   1.3723 B( 19-C , 21-C ) :   1.0640 B( 20-C , 39-H ) :   0.9840
B( 21-C , 40-H ) :   0.9569 B( 21-C , 41-H ) :   0.9518 B( 21-C , 42-H ) :   0.9578

Dispersion correction           -0.102650636
FINAL SINGLE POINT ENERGY     -1153.086331499431

DIPOLE MOMENT
-------------

Method             : SCF
Type of density    : Electron Density
Multiplicity       :   1
Irrep              :   0
Energy             : -1152.9836808633417604 Eh
Relativity type    :
Basis              : AO
                                X                 Y                 Z
Electronic contribution:      1.272975925      -2.508208270      12.385996412
Nuclear contribution   :     -1.226153881       2.584160055     -13.146014623
                        -----------------------------------------
Total Dipole Moment    :      0.046822044       0.075951785      -0.760018211
                        -----------------------------------------
Magnitude (a.u.)       :      0.765237648
Magnitude (Debye)      :      1.945079523

Rotational constants in cm-1:             0.009520             0.007497             0.005199
Rotational constants in MHz :           285.413587           224.759499           155.857051

                             ****ORCA TERMINATED NORMALLY****
TOTAL RUN TIME: 0 days 0 hours 8 minutes 27 seconds 644 msec
