                         Program Version 6.0.0  -   RELEASE   -
|  1> ! RI BP86 def2-SVP D3BJ TIGHTSCF Opt
|  2> %pal
|  3> nprocs 6
|  4> end
|  5>
|  6> * xyz 0 1
|  7> C      0.814603   -0.547321   -1.449949
|  8> N      1.362174   -0.674999   -0.105439
|  9> C      1.554732    0.644387    0.482766
| 10> N      0.311540    1.404607    0.502276
| 11> C     -0.227428    1.515256   -0.847210
| 12> N     -0.434700    0.203060   -1.446396
| 13> C     -1.531271   -0.536563   -0.811182
| 14> P     -1.039491   -0.782478    0.880545
| 15> O     -2.033925   -1.531038    1.722922
| 16> C      0.556413   -1.556729    0.746798
| 17> C     -0.664258    0.859445    1.452867
| 18> H      0.673231   -1.535282   -1.907428
| 19> H      1.544563   -0.045702   -2.099631
| 20> H      2.315215    1.195152   -0.087210
| 21> H      1.975573    0.561664    1.493405
| 22> H     -1.160342    2.094058   -0.846841
| 23> H      0.459559    2.101935   -1.472035
| 24> H     -2.466767    0.029369   -0.874257
| 25> H     -1.697916   -1.492481   -1.318982
| 26> H      1.023275   -1.676073    1.730265
| 27> H      0.477179   -2.555362    0.304232
| 28> H     -0.248505    0.841266    2.465896
| 29> H     -1.563453    1.483827    1.484587
| 30> **                         ****END OF INPUT****
 Total Charge           Charge          ....    0
 Multiplicity           Mult            ....    1
 Number of Electrons    NEL             ....   92
Dispersion correction           -0.051270910
FINAL SINGLE POINT ENERGY      -816.297549178974
Dispersion correction             ... done (  0.1 sec)
Dispersion correction           -0.050689911
FINAL SINGLE POINT ENERGY      -816.312869556733
Dispersion correction             ... done (  0.1 sec)
Dispersion correction           -0.050377055
FINAL SINGLE POINT ENERGY      -816.317967897033
Dispersion correction             ... done (  0.1 sec)
FINAL SINGLE POINT ENERGY      -816.318467022893
Dispersion correction             ... done (  0.1 sec)
Dispersion correction           -0.050285513
FINAL SINGLE POINT ENERGY      -816.318636910252
Dispersion correction             ... done (  0.1 sec)
Dispersion correction           -0.050283996
FINAL SINGLE POINT ENERGY      -816.318666441971
Dispersion correction             ... done (  0.1 sec)
                    ***********************HURRAY********************

CARTESIAN COORDINATES (ANGSTROEM)
---------------------------------
  C      0.825262   -0.540397   -1.459408
  N      1.407109   -0.687402   -0.115130
  C      1.565820    0.652179    0.474622
  N      0.327767    1.447772    0.508857
  C     -0.218000    1.523538   -0.856037
  N     -0.438410    0.214085   -1.491998
  C     -1.530966   -0.528711   -0.837760
  P     -1.133952   -0.853087    0.960091
  O     -2.136853   -1.608401    1.808215
  C      0.582634   -1.561080    0.739896
  C     -0.653143    0.884728    1.454625
  H      0.661271   -1.546519   -1.897266
  H      1.560886   -0.001559   -2.092265
  H      2.310720    1.206929   -0.133083
  H      1.962912    0.552114    1.505748
  H     -1.175137    2.084219   -0.835879
  H      0.504055    2.088857   -1.481399
  H     -2.480620    0.045446   -0.901977
  H     -1.702637   -1.499027   -1.352504
  H      1.055665   -1.683230    1.738459
  H      0.502036   -2.575261    0.292005
  H     -0.231242    0.865357    2.482858
  H     -1.565178    1.519448    1.489329

 Multiplicity           Mult            ....    1
 Number of Electrons    NEL             ....   92
 Basis Dimension        Dim             ....  218

ORBITAL ENERGIES
----------------

  NO   OCC          E(Eh)            E(eV)
   0   2.0000     -76.402971     -2079.0305
   1   2.0000     -18.720629      -509.4142
   2   2.0000     -14.027719      -381.7136
   3   2.0000     -14.027696      -381.7130
   4   2.0000     -14.027556      -381.7092
   5   2.0000      -9.978197      -271.5205
   6   2.0000      -9.978187      -271.5203
   7   2.0000      -9.978167      -271.5197
   8   2.0000      -9.954639      -270.8795
   9   2.0000      -9.954580      -270.8779
  10   2.0000      -9.954555      -270.8772
  11   2.0000      -6.364465      -173.1859
  12   2.0000      -4.585554      -124.7793
  13   2.0000      -4.585298      -124.7723
  14   2.0000      -4.585297      -124.7723
  15   2.0000      -0.916807       -24.9476
  16   2.0000      -0.848379       -23.0856
  17   2.0000      -0.824869       -22.4458
  18   2.0000      -0.824831       -22.4448
  19   2.0000      -0.696074       -18.9411
  20   2.0000      -0.647415       -17.6171
  21   2.0000      -0.647374       -17.6159
  22   2.0000      -0.586861       -15.9693
  23   2.0000      -0.586790       -15.9674
  24   2.0000      -0.541576       -14.7370
  25   2.0000      -0.509480       -13.8637
  26   2.0000      -0.451554       -12.2874
  27   2.0000      -0.451291       -12.2803
  28   2.0000      -0.451286       -12.2801
  29   2.0000      -0.450683       -12.2637
  30   2.0000      -0.413255       -11.2453
  31   2.0000      -0.413184       -11.2433
  32   2.0000      -0.358226        -9.7478
  33   2.0000      -0.358151        -9.7458
  34   2.0000      -0.357556        -9.7296
  35   2.0000      -0.344488        -9.3740
  36   2.0000      -0.344397        -9.3715
  37   2.0000      -0.343416        -9.3448
  38   2.0000      -0.333303        -9.0696
  39   2.0000      -0.332677        -9.0526
  40   2.0000      -0.332624        -9.0511
  41   2.0000      -0.255464        -6.9515
  42   2.0000      -0.239804        -6.5254
  43   2.0000      -0.239798        -6.5252
  44   2.0000      -0.175482        -4.7751
  45   2.0000      -0.175447        -4.7742
  46   0.0000       0.009818         0.2672
  47   0.0000       0.021920         0.5965
  48   0.0000       0.042394         1.1536
  49   0.0000       0.042432         1.1546
  50   0.0000       0.048455         1.3185

MULLIKEN ATOMIC CHARGES
-----------------------
   0 C :    0.167313
   1 N :   -0.294725
   2 C :    0.167190
   3 N :   -0.294664
   4 C :    0.167348
   5 N :   -0.294809
   6 C :   -0.023270
   7 P :    0.381698
   8 O :   -0.444138
   9 C :   -0.023151
  10 C :   -0.023646
  11 H :    0.026321
  12 H :    0.026273
  13 H :    0.026277
  14 H :    0.026337
  15 H :    0.026313
  16 H :    0.026316
  17 H :    0.059458
  18 H :    0.059549
  19 H :    0.059404
  20 H :    0.059485
  21 H :    0.059495
  22 H :    0.059623
Sum of atomic charges:   -0.0000000

LOEWDIN ATOMIC CHARGES
----------------------
   0 C :    0.053336
   1 N :   -0.134701
   2 C :    0.053371
   3 N :   -0.134607
   4 C :    0.053414
   5 N :   -0.134752
   6 C :   -0.128271
   7 P :    0.774391
   8 O :   -0.486867
   9 C :   -0.128193
  10 C :   -0.128237
  11 H :    0.024604
  12 H :    0.026832
  13 H :    0.026819
  14 H :    0.024601
  15 H :    0.024601
  16 H :    0.026826
  17 H :    0.031133
  18 H :    0.031159
  19 H :    0.031113
  20 H :    0.031133
  21 H :    0.031126
  22 H :    0.031170

  Mayer bond orders larger than 0.100000
B(  0-C ,  1-N ) :   1.0333 B(  0-C ,  5-N ) :   1.0335 B(  0-C , 11-H ) :   0.9337
B(  0-C , 12-H ) :   0.9324 B(  1-N ,  2-C ) :   1.0334 B(  1-N ,  9-C ) :   0.9663
B(  2-C ,  3-N ) :   1.0335 B(  2-C , 13-H ) :   0.9324 B(  2-C , 14-H ) :   0.9336
B(  3-N ,  4-C ) :   1.0336 B(  3-N , 10-C ) :   0.9662 B(  4-C ,  5-N ) :   1.0333
B(  4-C , 15-H ) :   0.9336 B(  4-C , 16-H ) :   0.9324 B(  5-N ,  6-C ) :   0.9662
B(  6-C ,  7-P ) :   0.8745 B(  6-C , 17-H ) :   0.9317 B(  6-C , 18-H ) :   0.9318
B(  7-P ,  8-O ) :   1.9144 B(  7-P ,  9-C ) :   0.8743 B(  7-P , 10-C ) :   0.8742
B(  9-C , 19-H ) :   0.9318 B(  9-C , 20-H ) :   0.9318 B( 10-C , 21-H ) :   0.9317
B( 10-C , 22-H ) :   0.9318

Dispersion correction           -0.050285265
FINAL SINGLE POINT ENERGY      -816.318669593695

DIPOLE MOMENT
-------------

Method             : SCF
Type of density    : Electron Density
Multiplicity       :   1
Irrep              :   0
Energy             :  -816.2683843288989465 Eh
Relativity type    :
Basis              : AO
                                X                 Y                 Z
Electronic contribution:     -4.023203584      -3.027432258       3.404439335
Nuclear contribution   :      4.878636099       3.672918486      -4.127640988
                        -----------------------------------------
Total Dipole Moment    :      0.855432514       0.645486228      -0.723201653
                        -----------------------------------------
Magnitude (a.u.)       :      1.292841014
Magnitude (Debye)      :      3.286140705

Rotational constants in cm-1:             0.054561             0.033968             0.033967
Rotational constants in MHz :          1635.696829          1018.348078          1018.294992

                             ****ORCA TERMINATED NORMALLY****
TOTAL RUN TIME: 0 days 0 hours 0 minutes 54 seconds 448 msec
