                         Program Version 6.0.0  -   RELEASE   -
|  1> ! RIJCOSX M062X def2-TZVP D3ZERO NormalSCF
|  2> %pal
|  3> nprocs 6
|  4> end
|  5>
|  6> * xyz 0 1
|  7>   C           2.96962690593335     -1.48914170239945      1.37157092305045
|  8>   C           1.70355283807225     -1.13012179929498      0.88506938839614
|  9>   C           1.55554767150405     -0.65465712510330     -0.43364298617123
| 10>   C           2.68367893188170     -0.56388544538942     -1.27593250677440
| 11>   C           3.95268581078568     -0.92110907395503     -0.80150335717860
| 12>   C           4.07742686098125     -1.37491612276745      0.51983162101687
| 13>   F           5.29343889008743     -1.72255128410499      0.97990102730135
| 14>   P          -0.04510741499711     -0.14408848625520     -1.15761873966952
| 15>   O          -0.10573706054068     -0.33134701712976     -2.66360917745209
| 16>   C          -1.32000756147685     -1.10370469106831     -0.26268825682255
| 17>   C          -1.78325533865002     -2.27702939422575     -0.89393147968810
| 18>   C          -2.74661160300361     -3.08255034798653     -0.27218013611543
| 19>   C          -3.24243593094933     -2.69703183107860      0.98194804761578
| 20>   C          -2.81010879562507     -1.52693829554300      1.62237112700472
| 21>   C          -1.84683596175133     -0.72712572036298      0.98952758651504
| 22>   F          -4.16841336077107     -3.46594991505645      1.58404812680748
| 23>   C          -0.28606709198185      1.59388758903162     -0.63970318077396
| 24>   C          -1.05019127372833      2.40763691488784     -1.50210180556893
| 25>   C          -1.30220118244242      3.74639038525872     -1.17417049789083
| 26>   C          -0.77707053564066      4.25998275506823      0.02073843737023
| 27>   C          -0.00070955689987      3.47634687847636      0.88627943845941
| 28>   C           0.24696739252073      2.13786486996684      0.54656056372547
| 29>   F          -1.01525134157864      5.54528661220774      0.34097164808412
| 30>   H           3.11113500822835     -1.86729467255039      2.39416893430712
| 31>   H           0.82291918677443     -1.24087647344704      1.53627563603994
| 32>   H           2.54708106251172     -0.22512440998221     -2.31455235707038
| 33>   H           4.84684035733111     -0.86281163960829     -1.43875904587291
| 34>   H          -1.38730432296759     -2.53787552133932     -1.88754309621959
| 35>   H          -3.12650025232380     -4.00014772881066     -0.74409519279136
| 36>   H          -3.24026124786138     -1.25426968129010      2.59670908699657
| 37>   H          -1.51778075571589      0.20722109250777      1.46975712423982
| 38>   H          -1.42985121515789      1.97746446302549     -2.44175671612128
| 39>   H          -1.89214640004279      4.40240823073278     -1.83038543735612
| 40>   H           0.40634992173720      3.92611804902573      1.80321223585767
| 41>   H           0.87659736575693      1.51994153856010      1.20523401674909
| 42> **                         ****END OF INPUT****

CARTESIAN COORDINATES (ANGSTROEM)
---------------------------------
  C      2.969627   -1.489142    1.371571
  C      1.703553   -1.130122    0.885069
  C      1.555548   -0.654657   -0.433643
  C      2.683679   -0.563885   -1.275933
  C      3.952686   -0.921109   -0.801503
  C      4.077427   -1.374916    0.519832
  F      5.293439   -1.722551    0.979901
  P     -0.045107   -0.144088   -1.157619
  O     -0.105737   -0.331347   -2.663609
  C     -1.320008   -1.103705   -0.262688
  C     -1.783255   -2.277029   -0.893931
  C     -2.746612   -3.082550   -0.272180
  C     -3.242436   -2.697032    0.981948
  C     -2.810109   -1.526938    1.622371
  C     -1.846836   -0.727126    0.989528
  F     -4.168413   -3.465950    1.584048
  C     -0.286067    1.593888   -0.639703
  C     -1.050191    2.407637   -1.502102
  C     -1.302201    3.746390   -1.174170
  C     -0.777071    4.259983    0.020738
  C     -0.000710    3.476347    0.886279
  C      0.246967    2.137865    0.546561
  F     -1.015251    5.545287    0.340972
  H      3.111135   -1.867295    2.394169
  H      0.822919   -1.240876    1.536276
  H      2.547081   -0.225124   -2.314552
  H      4.846840   -0.862812   -1.438759
  H     -1.387304   -2.537876   -1.887543
  H     -3.126500   -4.000148   -0.744095
  H     -3.240261   -1.254270    2.596709
  H     -1.517781    0.207221    1.469757
  H     -1.429851    1.977464   -2.441757
  H     -1.892146    4.402408   -1.830385
  H      0.406350    3.926118    1.803212
  H      0.876597    1.519942    1.205234

 Total Charge           Charge          ....    0
 Multiplicity           Mult            ....    1
 Number of Electrons    NEL             ....  170
 Basis Dimension        Dim             ....  791

ORBITAL ENERGIES
----------------

  NO   OCC          E(Eh)            E(eV)
   0   2.0000     -78.109978     -2125.4806
   1   2.0000     -25.272507      -687.6999
   2   2.0000     -25.272503      -687.6998
   3   2.0000     -25.272440      -687.6981
   4   2.0000     -19.577652      -532.7350
   5   2.0000     -10.652979      -289.8823
   6   2.0000     -10.652916      -289.8806
   7   2.0000     -10.652845      -289.8787
   8   2.0000     -10.582163      -287.9553
   9   2.0000     -10.582050      -287.9522
  10   2.0000     -10.582028      -287.9516
  11   2.0000     -10.576673      -287.8059
  12   2.0000     -10.576637      -287.8049
  13   2.0000     -10.576508      -287.8014
  14   2.0000     -10.574147      -287.7372
  15   2.0000     -10.574046      -287.7344
  16   2.0000     -10.574023      -287.7338
  17   2.0000     -10.571910      -287.6763
  18   2.0000     -10.571866      -287.6751
  19   2.0000     -10.571793      -287.6731
  20   2.0000     -10.571430      -287.6632
  21   2.0000     -10.571419      -287.6629
  22   2.0000     -10.571261      -287.6586
  23   2.0000      -6.915999      -188.1939
  24   2.0000      -5.033154      -136.9591
  25   2.0000      -5.033149      -136.9589
  26   2.0000      -5.031453      -136.9128
  27   2.0000      -1.386924       -37.7401
  28   2.0000      -1.386905       -37.7396
  29   2.0000      -1.386822       -37.7374
  30   2.0000      -1.074178       -29.2299
  31   2.0000      -0.985430       -26.8149
  32   2.0000      -0.981032       -26.6952
  33   2.0000      -0.980972       -26.6936
  34   2.0000      -0.884647       -24.0725
  35   2.0000      -0.870695       -23.6928
  36   2.0000      -0.870297       -23.6820
  37   2.0000      -0.870251       -23.6807
  38   2.0000      -0.859560       -23.3898
  39   2.0000      -0.859504       -23.3883
  40   2.0000      -0.754317       -20.5260
  41   2.0000      -0.729642       -19.8546
  42   2.0000      -0.726810       -19.7775
  43   2.0000      -0.726731       -19.7754
  44   2.0000      -0.713060       -19.4033
  45   2.0000      -0.712987       -19.4014
  46   2.0000      -0.657575       -17.8935
  47   2.0000      -0.642423       -17.4812
  48   2.0000      -0.641408       -17.4536
  49   2.0000      -0.641337       -17.4517
  50   2.0000      -0.594991       -16.1905
  51   2.0000      -0.594023       -16.1642
  52   2.0000      -0.593908       -16.1611
  53   2.0000      -0.583339       -15.8735
  54   2.0000      -0.583310       -15.8727
  55   2.0000      -0.583177       -15.8691
  56   2.0000      -0.572715       -15.5844
  57   2.0000      -0.572634       -15.5822
  58   2.0000      -0.538032       -14.6406
  59   2.0000      -0.531988       -14.4761
  60   2.0000      -0.531846       -14.4723
  61   2.0000      -0.516238       -14.0475
  62   2.0000      -0.513748       -13.9798
  63   2.0000      -0.513714       -13.9789
  64   2.0000      -0.509426       -13.8622
  65   2.0000      -0.500402       -13.6166
  66   2.0000      -0.500350       -13.6152
  67   2.0000      -0.498793       -13.5728
  68   2.0000      -0.462864       -12.5952
  69   2.0000      -0.462696       -12.5906
  70   2.0000      -0.451413       -12.2836
  71   2.0000      -0.441067       -12.0020
  72   2.0000      -0.433867       -11.8061
  73   2.0000      -0.433824       -11.8050
  74   2.0000      -0.424546       -11.5525
  75   2.0000      -0.424501       -11.5513
  76   2.0000      -0.421640       -11.4734
  77   2.0000      -0.351642        -9.5687
  78   2.0000      -0.351501        -9.5648
  79   2.0000      -0.336845        -9.1660
  80   2.0000      -0.335192        -9.1210
  81   2.0000      -0.335127        -9.1193
  82   2.0000      -0.323790        -8.8108
  83   2.0000      -0.323547        -8.8042
  84   2.0000      -0.314632        -8.5616
  85   0.0000      -0.019031        -0.5179
  86   0.0000      -0.018682        -0.5084
  87   0.0000      -0.016524        -0.4496
  88   0.0000      -0.004298        -0.1169
  89   0.0000      -0.002167        -0.0590

MULLIKEN ATOMIC CHARGES
-----------------------
   0 C :   -0.222662
   1 C :   -0.173034
   2 C :   -0.098476
   3 C :   -0.131421
   4 C :   -0.207995
   5 C :    0.298632
   6 F :   -0.195521
   7 P :    0.624783
   8 O :   -0.594419
   9 C :   -0.093850
  10 C :   -0.131308
  11 C :   -0.207727
  12 C :    0.297800
  13 C :   -0.223527
  14 C :   -0.177042
  15 F :   -0.195625
  16 C :   -0.092563
  17 C :   -0.130112
  18 C :   -0.208057
  19 C :    0.297843
  20 C :   -0.223645
  21 C :   -0.178437
  22 F :   -0.195558
  23 H :    0.162953
  24 H :    0.199652
  25 H :    0.193111
  26 H :    0.164252
  27 H :    0.194184
  28 H :    0.164533
  29 H :    0.163175
  30 H :    0.199885
  31 H :    0.193526
  32 H :    0.163970
  33 H :    0.163053
  34 H :    0.199627
Sum of atomic charges:    0.0000000

LOEWDIN ATOMIC CHARGES
----------------------
   0 C :   -0.118155
   1 C :   -0.130421
   2 C :   -0.236643
   3 C :   -0.104429
   4 C :   -0.112179
   5 C :   -0.242855
   6 F :    0.181392
   7 P :    0.678410
   8 O :   -0.304343
   9 C :   -0.236629
  10 C :   -0.104461
  11 C :   -0.112160
  12 C :   -0.242804
  13 C :   -0.118191
  14 C :   -0.130581
  15 F :    0.181357
  16 C :   -0.236569
  17 C :   -0.104434
  18 C :   -0.112191
  19 C :   -0.242894
  20 C :   -0.118230
  21 C :   -0.130721
  22 F :    0.181324
  23 H :    0.157815
  24 H :    0.158103
  25 H :    0.164068
  26 H :    0.158839
  27 H :    0.164183
  28 H :    0.158819
  29 H :    0.157840
  30 H :    0.157985
  31 H :    0.164148
  32 H :    0.158798
  33 H :    0.157825
  34 H :    0.157984

  Mayer bond orders larger than 0.100000
B(  0-C ,  1-C ) :   1.4274 B(  0-C ,  5-C ) :   1.4420 B(  0-C , 23-H ) :   0.9439
B(  1-C ,  2-C ) :   1.3148 B(  1-C , 24-H ) :   0.9070 B(  2-C ,  3-C ) :   1.4311
B(  2-C ,  7-P ) :   0.9224 B(  3-C ,  4-C ) :   1.3910 B(  3-C , 25-H ) :   0.8993
B(  4-C ,  5-C ) :   1.4272 B(  4-C , 26-H ) :   0.9478 B(  5-C ,  6-F ) :   1.0034
B(  7-P ,  8-O ) :   1.9450 B(  7-P ,  9-C ) :   0.9230 B(  7-P , 16-C ) :   0.9228
B(  9-C , 10-C ) :   1.4291 B(  9-C , 14-C ) :   1.3118 B( 10-C , 11-C ) :   1.3897
B( 10-C , 27-H ) :   0.8991 B( 11-C , 12-C ) :   1.4285 B( 11-C , 28-H ) :   0.9477
B( 12-C , 13-C ) :   1.4409 B( 12-C , 15-F ) :   1.0032 B( 13-C , 14-C ) :   1.4282
B( 13-C , 29-H ) :   0.9440 B( 14-C , 30-H ) :   0.9076 B( 16-C , 17-C ) :   1.4300
B( 16-C , 21-C ) :   1.3150 B( 17-C , 18-C ) :   1.3894 B( 17-C , 31-H ) :   0.8994
B( 18-C , 19-C ) :   1.4271 B( 18-C , 32-H ) :   0.9486 B( 19-C , 20-C ) :   1.4422
B( 19-C , 22-F ) :   1.0036 B( 20-C , 21-C ) :   1.4282 B( 20-C , 33-H ) :   0.9439
B( 21-C , 34-H ) :   0.9084

Dispersion correction           -0.002335271
FINAL SINGLE POINT ENERGY     -1409.275760881088

DIPOLE MOMENT
-------------

Method             : SCF
Type of density    : Electron Density
Multiplicity       :   1
Irrep              :   0
Energy             : -1409.2734256097442085 Eh
Relativity type    :
Basis              : AO
                                X                 Y                 Z
Electronic contribution:      0.072262191       0.245097125       2.027845674
Nuclear contribution   :     -0.030982412      -0.117780113      -1.001364095
                        -----------------------------------------
Total Dipole Moment    :      0.041279779       0.127317013       1.026481579
                        -----------------------------------------
Magnitude (a.u.)       :      1.035170553
Magnitude (Debye)      :      2.631194442

Rotational constants in cm-1:             0.006796             0.006780             0.004106
Rotational constants in MHz :           203.737256           203.265627           123.096838

                             ****ORCA TERMINATED NORMALLY****
TOTAL RUN TIME: 0 days 0 hours 2 minutes 23 seconds 33 msec
