                         Program Version 6.0.0  -   RELEASE   -
|  1> ! RIJCOSX M062X def2-TZVP D3ZERO NormalSCF
|  2> %pal
|  3> nprocs 6
|  4> end
|  5>
|  6> * xyz 0 1
|  7>   C          -1.67761510825105     -2.55320756382049     -0.47431832275295
|  8>   C          -2.09502072063212     -1.09511964775154     -0.26022703889824
|  9>   P          -1.04953791434264     -0.23690230319210      1.04387644150638
| 10>   C          -1.60708624114875      1.53570917338801      0.75443436518281
| 11>   C          -0.75522128004325      2.54508028642964      1.52935741111323
| 12>   C           0.59414473358824     -0.18527410616849      0.17321832123844
| 13>   C           0.74635541946494      0.20707602025291     -1.17483729317525
| 14>   C           2.01464077277750      0.24038253964908     -1.77379528318626
| 15>   C           3.15449336691680     -0.11662894078312     -1.03095411981353
| 16>   C           3.01790835365639     -0.50795939666729      0.31044228544933
| 17>   C           1.74499785434586     -0.54342383845271      0.90578591714484
| 18>   H          -2.34536792583898     -3.06207869626000     -1.19974442106087
| 19>   H          -1.70939213125029     -3.12577328503821      0.47567334913047
| 20>   H          -0.64205423060437     -2.61816371543601     -0.86709635703184
| 21>   H          -2.06249514467995     -0.52782406164437     -1.21688465227007
| 22>   H          -3.14376845564518     -1.03560304697649      0.10455975998562
| 23>   H          -2.66913013289544      1.58285375706683      1.08092784507302
| 24>   H          -1.59740611458724      1.76254599994049     -0.33482118086756
| 25>   H          -0.76424926208509      2.33012381709206      2.61799096259390
| 26>   H          -1.12561772348137      3.58097075447356      1.38501001538435
| 27>   H           0.30176192422658      2.51566410167376      1.19322884928720
| 28>   H          -0.13722211050815      0.49211349537295     -1.76869377540004
| 29>   H           2.11685643951599      0.54756454242545     -2.82643729932658
| 30>   H           4.14979505974567     -0.08960389466042     -1.50086303521097
| 31>   H           3.90645550897420     -0.78917918784097      0.89681420087745
| 32>   H           1.63377406278170     -0.85334380307251      1.95735505502713
| 33> **                         ****END OF INPUT****

CARTESIAN COORDINATES (ANGSTROEM)
---------------------------------
  C     -1.677615   -2.553208   -0.474318
  C     -2.095021   -1.095120   -0.260227
  P     -1.049538   -0.236902    1.043876
  C     -1.607086    1.535709    0.754434
  C     -0.755221    2.545080    1.529357
  C      0.594145   -0.185274    0.173218
  C      0.746355    0.207076   -1.174837
  C      2.014641    0.240383   -1.773795
  C      3.154493   -0.116629   -1.030954
  C      3.017908   -0.507959    0.310442
  C      1.744998   -0.543424    0.905786
  H     -2.345368   -3.062079   -1.199744
  H     -1.709392   -3.125773    0.475673
  H     -0.642054   -2.618164   -0.867096
  H     -2.062495   -0.527824   -1.216885
  H     -3.143768   -1.035603    0.104560
  H     -2.669130    1.582854    1.080928
  H     -1.597406    1.762546   -0.334821
  H     -0.764249    2.330124    2.617991
  H     -1.125618    3.580971    1.385010
  H      0.301762    2.515664    1.193229
  H     -0.137222    0.492113   -1.768694
  H      2.116856    0.547565   -2.826437
  H      4.149795   -0.089604   -1.500863
  H      3.906456   -0.789179    0.896814
  H      1.633774   -0.853344    1.957355

 Total Charge           Charge          ....    0
 Multiplicity           Mult            ....    1
 Number of Electrons    NEL             ....   90
 Basis Dimension        Dim             ....  437

ORBITAL ENERGIES
----------------

  NO   OCC          E(Eh)            E(eV)
   0   2.0000     -78.017241     -2122.9571
   1   2.0000     -10.552604      -287.1510
   2   2.0000     -10.552352      -287.1441
   3   2.0000     -10.551327      -287.1162
   4   2.0000     -10.550601      -287.0964
   5   2.0000     -10.550128      -287.0836
   6   2.0000     -10.549536      -287.0675
   7   2.0000     -10.540891      -286.8322
   8   2.0000     -10.540452      -286.8203
   9   2.0000     -10.530891      -286.5601
  10   2.0000     -10.530365      -286.5458
  11   2.0000      -6.833352      -185.9450
  12   2.0000      -4.947800      -134.6365
  13   2.0000      -4.947526      -134.6290
  14   2.0000      -4.947357      -134.6244
  15   2.0000      -0.955675       -26.0052
  16   2.0000      -0.875082       -23.8122
  17   2.0000      -0.845011       -22.9939
  18   2.0000      -0.840709       -22.8768
  19   2.0000      -0.834941       -22.7199
  20   2.0000      -0.737114       -20.0579
  21   2.0000      -0.688448       -18.7336
  22   2.0000      -0.682176       -18.5630
  23   2.0000      -0.680726       -18.5235
  24   2.0000      -0.615943       -16.7607
  25   2.0000      -0.575771       -15.6675
  26   2.0000      -0.524532       -14.2732
  27   2.0000      -0.517741       -14.0884
  28   2.0000      -0.509710       -13.8699
  29   2.0000      -0.505157       -13.7460
  30   2.0000      -0.499229       -13.5847
  31   2.0000      -0.485339       -13.2068
  32   2.0000      -0.466488       -12.6938
  33   2.0000      -0.455372       -12.3913
  34   2.0000      -0.436622       -11.8811
  35   2.0000      -0.434605       -11.8262
  36   2.0000      -0.420080       -11.4310
  37   2.0000      -0.413310       -11.2467
  38   2.0000      -0.403597       -10.9824
  39   2.0000      -0.400277       -10.8921
  40   2.0000      -0.360703        -9.8152
  41   2.0000      -0.358861        -9.7651
  42   2.0000      -0.310014        -8.4359
  43   2.0000      -0.304403        -8.2832
  44   2.0000      -0.279470        -7.6048
  45   0.0000       0.001529         0.0416
  46   0.0000       0.015115         0.4113
  47   0.0000       0.065098         1.7714
  48   0.0000       0.066843         1.8189
  49   0.0000       0.071686         1.9507

MULLIKEN ATOMIC CHARGES
-----------------------
   0 C :   -0.429646
   1 C :   -0.361406
   2 P :    0.162069
   3 C :   -0.347259
   4 C :   -0.436573
   5 C :   -0.128912
   6 C :   -0.150358
   7 C :   -0.169569
   8 C :   -0.133640
   9 C :   -0.153011
  10 C :   -0.090380
  11 H :    0.141963
  12 H :    0.149546
  13 H :    0.158237
  14 H :    0.148764
  15 H :    0.152554
  16 H :    0.149301
  17 H :    0.148444
  18 H :    0.148449
  19 H :    0.142335
  20 H :    0.160012
  21 H :    0.150446
  22 H :    0.144120
  23 H :    0.145780
  24 H :    0.144918
  25 H :    0.153815
Sum of atomic charges:   -0.0000000

LOEWDIN ATOMIC CHARGES
----------------------
   0 C :   -0.348620
   1 C :   -0.443355
   2 P :    0.591714
   3 C :   -0.440979
   4 C :   -0.348980
   5 C :   -0.285528
   6 C :   -0.141990
   7 C :   -0.144653
   8 C :   -0.140754
   9 C :   -0.142887
  10 C :   -0.146354
  11 H :    0.121622
  12 H :    0.123903
  13 H :    0.125920
  14 H :    0.123571
  15 H :    0.133077
  16 H :    0.132354
  17 H :    0.125005
  18 H :    0.123466
  19 H :    0.121618
  20 H :    0.126144
  21 H :    0.145873
  22 H :    0.147029
  23 H :    0.147022
  24 H :    0.147412
  25 H :    0.148370

  Mayer bond orders larger than 0.100000
B(  0-C ,  1-C ) :   0.9292 B(  0-C , 11-H ) :   0.9720 B(  0-C , 12-H ) :   0.9712
B(  0-C , 13-H ) :   0.9673 B(  1-C ,  2-P ) :   0.9607 B(  1-C , 14-H ) :   0.9558
B(  1-C , 15-H ) :   0.9480 B(  2-P ,  3-C ) :   0.9613 B(  2-P ,  5-C ) :   0.9409
B(  3-C ,  4-C ) :   0.9329 B(  3-C , 16-H ) :   0.9466 B(  3-C , 17-H ) :   0.9546
B(  4-C , 18-H ) :   0.9719 B(  4-C , 19-H ) :   0.9724 B(  4-C , 20-H ) :   0.9664
B(  5-C ,  6-C ) :   1.2978 B(  5-C , 10-C ) :   1.3873 B(  6-C ,  7-C ) :   1.4988
B(  6-C , 21-H ) :   0.9263 B(  7-C ,  8-C ) :   1.4303 B(  7-C , 22-H ) :   0.9437
B(  8-C ,  9-C ) :   1.4495 B(  8-C , 23-H ) :   0.9460 B(  9-C , 10-C ) :   1.4471
B(  9-C , 24-H ) :   0.9484 B( 10-C , 25-H ) :   0.9283

Dispersion correction           -0.001141444
FINAL SINGLE POINT ENERGY      -731.399235160238

DIPOLE MOMENT
-------------

Method             : SCF
Type of density    : Electron Density
Multiplicity       :   1
Irrep              :   0
Energy             :  -731.3980937164768648 Eh
Relativity type    :
Basis              : AO
                                X                 Y                 Z
Electronic contribution:      4.905960184      -1.676259766       2.053110162
Nuclear contribution   :     -4.886168782       1.853946454      -2.507743658
                        -----------------------------------------
Total Dipole Moment    :      0.019791401       0.177686689      -0.454633496
                        -----------------------------------------
Magnitude (a.u.)       :      0.488524180
Magnitude (Debye)      :      1.241729784

Rotational constants in cm-1:             0.040493             0.024010             0.018918
Rotational constants in MHz :          1213.951112           719.815249           567.162356

                             ****ORCA TERMINATED NORMALLY****
TOTAL RUN TIME: 0 days 0 hours 0 minutes 51 seconds 278 msec
