                         Program Version 6.0.0  -   RELEASE   -
|  1> ! RI BP86 def2-SVP D3BJ TIGHTSCF Opt
|  2> %pal
|  3> nprocs 6
|  4> end
|  5>
|  6> * xyz 0 1
|  7> C      3.732652   -1.706081   -1.128638
|  8> C      2.690824   -1.166598   -0.164026
|  9> C      1.274678   -1.390347   -0.680281
| 10> P     -0.004640   -0.786663    0.455502
| 11> O      0.072299   -1.544108    1.758623
| 12> C     -1.535633   -1.220539   -0.415651
| 13> C     -2.794035   -0.835176    0.352445
| 14> C     -4.053908   -1.235594   -0.395424
| 15> C      0.113264    0.976818    0.576023
| 16> C      0.055844    1.795961   -0.559341
| 17> C      0.151074    3.183447   -0.438342
| 18> C      0.304588    3.765723    0.818267
| 19> C      0.363036    2.962148    1.954566
| 20> C      0.267825    1.575741    1.833077
| 21> H      3.659083   -1.211210   -2.102299
| 22> H      4.739233   -1.533469   -0.735115
| 23> H      3.607160   -2.782962   -1.279876
| 24> H      2.807125   -1.652889    0.810940
| 25> H      2.861841   -0.096487   -0.004113
| 26> H      1.145569   -0.900346   -1.651579
| 27> H      1.103584   -2.461739   -0.835886
| 28> H     -1.525587   -2.302878   -0.588304
| 29> H     -1.531890   -0.738573   -1.399462
| 30> H     -2.784156   -1.315023    1.337438
| 31> H     -2.803360    0.245834    0.529325
| 32> H     -4.104192   -0.742147   -1.371287
| 33> H     -4.941804   -0.948502    0.176484
| 34> H     -4.088177   -2.317991   -0.555234
| 35> H     -0.063576    1.360483   -1.548051
| 36> H      0.105637    3.812058   -1.324168
| 37> H      0.378771    4.846013    0.912890
| 38> H      0.482736    3.413117    2.936387
| 39> H      0.314135    0.951979    2.725109
| 40> **                         ****END OF INPUT****
 Total Charge           Charge          ....    0
 Multiplicity           Mult            ....    1
 Number of Electrons    NEL             ....  114
Dispersion correction           -0.062054439
FINAL SINGLE POINT ENERGY      -884.910521640685
Dispersion correction             ... done (  0.1 sec)
Dispersion correction           -0.061666104
FINAL SINGLE POINT ENERGY      -884.918818857023
Dispersion correction             ... done (  0.1 sec)
Dispersion correction           -0.061570475
FINAL SINGLE POINT ENERGY      -884.920695217307
Dispersion correction             ... done (  0.1 sec)
FINAL SINGLE POINT ENERGY      -884.921144653174
FINAL SINGLE POINT ENERGY      -884.921232143464
FINAL SINGLE POINT ENERGY      -884.921256047271
Dispersion correction             ... done (  0.1 sec)
Dispersion correction           -0.061665017
FINAL SINGLE POINT ENERGY      -884.921264231010
Dispersion correction             ... done (  0.1 sec)
Dispersion correction           -0.061662728
FINAL SINGLE POINT ENERGY      -884.921266032651
Dispersion correction             ... done (  0.1 sec)
                    ***********************HURRAY********************

CARTESIAN COORDINATES (ANGSTROEM)
---------------------------------
  C      3.852607   -1.672462   -1.023673
  C      2.707779   -1.170141   -0.139758
  C      1.323305   -1.388006   -0.766830
  P     -0.017243   -0.880202    0.390025
  O      0.074437   -1.524294    1.764392
  C     -1.599346   -1.211387   -0.493000
  C     -2.808153   -0.825953    0.371361
  C     -4.148327   -1.195868   -0.269876
  C      0.102266    0.950467    0.485415
  C      0.044102    1.793729   -0.643075
  C      0.144196    3.185008   -0.485874
  C      0.302765    3.737395    0.797824
  C      0.360915    2.898710    1.923834
  C      0.260904    1.506570    1.769524
  H      3.864773   -1.153782   -2.005570
  H      4.837830   -1.503081   -0.543467
  H      3.760684   -2.760658   -1.224316
  H      2.722715   -1.679274    0.846949
  H      2.841815   -0.087472    0.075732
  H      1.212920   -0.835500   -1.725841
  H      1.154794   -2.464920   -0.988223
  H     -1.607808   -2.299649   -0.722536
  H     -1.596315   -0.671309   -1.465388
  H     -2.698444   -1.322695    1.358582
  H     -2.773351    0.266435    0.576100
  H     -4.285553   -0.688391   -1.248110
  H     -4.999692   -0.906700    0.379398
  H     -4.221451   -2.289039   -0.450184
  H     -0.079904    1.368739   -1.652486
  H      0.098560    3.842779   -1.367578
  H      0.381026    4.828868    0.919004
  H      0.484900    3.332611    2.928125
  H      0.302294    0.819473    2.629517

 Multiplicity           Mult            ....    1
 Number of Electrons    NEL             ....  114
 Basis Dimension        Dim             ....  295

ORBITAL ENERGIES
----------------

  NO   OCC          E(Eh)            E(eV)
   0   2.0000     -76.405394     -2079.0965
   1   2.0000     -18.711248      -509.1589
   2   2.0000      -9.934501      -270.3315
   3   2.0000      -9.930397      -270.2198
   4   2.0000      -9.930100      -270.2118
   5   2.0000      -9.927446      -270.1395
   6   2.0000      -9.925706      -270.0922
   7   2.0000      -9.925532      -270.0875
   8   2.0000      -9.923107      -270.0215
   9   2.0000      -9.923019      -270.0191
  10   2.0000      -9.918143      -269.8864
  11   2.0000      -9.918017      -269.8830
  12   2.0000      -9.910444      -269.6769
  13   2.0000      -9.910386      -269.6753
  14   2.0000      -6.364865      -173.1968
  15   2.0000      -4.586321      -124.8001
  16   2.0000      -4.585784      -124.7855
  17   2.0000      -4.585729      -124.7840
  18   2.0000      -0.844539       -22.9811
  19   2.0000      -0.778305       -21.1788
  20   2.0000      -0.719603       -19.5814
  21   2.0000      -0.710558       -19.3353
  22   2.0000      -0.680869       -18.5274
  23   2.0000      -0.676677       -18.4133
  24   2.0000      -0.639163       -17.3925
  25   2.0000      -0.613767       -16.7014
  26   2.0000      -0.555376       -15.1125
  27   2.0000      -0.549393       -14.9497
  28   2.0000      -0.536260       -14.5924
  29   2.0000      -0.520923       -14.1750
  30   2.0000      -0.492221       -13.3940
  31   2.0000      -0.457176       -12.4404
  32   2.0000      -0.424650       -11.5553
  33   2.0000      -0.417482       -11.3603
  34   2.0000      -0.412862       -11.2345
  35   2.0000      -0.405193       -11.0259
  36   2.0000      -0.397826       -10.8254
  37   2.0000      -0.385486       -10.4896
  38   2.0000      -0.381785       -10.3889
  39   2.0000      -0.370783       -10.0895
  40   2.0000      -0.369249       -10.0478
  41   2.0000      -0.350859        -9.5473
  42   2.0000      -0.348720        -9.4891
  43   2.0000      -0.337754        -9.1908
  44   2.0000      -0.337301        -9.1784
  45   2.0000      -0.316145        -8.6027
  46   2.0000      -0.311518        -8.4768
  47   2.0000      -0.304856        -8.2955
  48   2.0000      -0.299048        -8.1375
  49   2.0000      -0.294947        -8.0259
  50   2.0000      -0.293042        -7.9741
  51   2.0000      -0.290409        -7.9024
  52   2.0000      -0.288681        -7.8554
  53   2.0000      -0.240660        -6.5487
  54   2.0000      -0.239351        -6.5131
  55   2.0000      -0.213371        -5.8061
  56   2.0000      -0.211079        -5.7437
  57   0.0000      -0.062476        -1.7001
  58   0.0000      -0.051672        -1.4061
  59   0.0000       0.018555         0.5049
  60   0.0000       0.042890         1.1671
  61   0.0000       0.046501         1.2654

MULLIKEN ATOMIC CHARGES
-----------------------
   0 C :   -0.037756
   1 C :   -0.055344
   2 C :   -0.138669
   3 P :    0.488592
   4 O :   -0.467176
   5 C :   -0.138746
   6 C :   -0.055183
   7 C :   -0.038233
   8 C :   -0.139535
   9 C :   -0.010296
  10 C :   -0.002873
  11 C :    0.007419
  12 C :    0.002856
  13 C :    0.005851
  14 H :    0.024672
  15 H :    0.035198
  16 H :    0.029629
  17 H :    0.048958
  18 H :    0.036766
  19 H :    0.034977
  20 H :    0.054499
  21 H :    0.054634
  22 H :    0.035308
  23 H :    0.049002
  24 H :    0.036939
  25 H :    0.024660
  26 H :    0.035215
  27 H :    0.029824
  28 H :    0.000025
  29 H :    0.005214
  30 H :    0.008961
  31 H :    0.010392
  32 H :    0.024221
Sum of atomic charges:   -0.0000000

LOEWDIN ATOMIC CHARGES
----------------------
   0 C :   -0.073131
   1 C :   -0.058822
   2 C :   -0.191135
   3 P :    0.876305
   4 O :   -0.501807
   5 C :   -0.191091
   6 C :   -0.058887
   7 C :   -0.073123
   8 C :   -0.188085
   9 C :   -0.037805
  10 C :   -0.030535
  11 C :   -0.023017
  12 C :   -0.027114
  13 C :   -0.018689
  14 H :    0.025828
  15 H :    0.031896
  16 H :    0.027775
  17 H :    0.034735
  18 H :    0.030498
  19 H :    0.027714
  20 H :    0.035455
  21 H :    0.035548
  22 H :    0.027783
  23 H :    0.034652
  24 H :    0.030536
  25 H :    0.025804
  26 H :    0.031924
  27 H :    0.027842
  28 H :    0.026618
  29 H :    0.033804
  30 H :    0.034526
  31 H :    0.035463
  32 H :    0.038533

  Mayer bond orders larger than 0.100000
B(  0-C ,  1-C ) :   1.1115 B(  0-C , 14-H ) :   0.9653 B(  0-C , 15-H ) :   0.9625
B(  0-C , 16-H ) :   0.9673 B(  1-C ,  2-C ) :   1.0614 B(  1-C , 17-H ) :   0.9336
B(  1-C , 18-H ) :   0.9418 B(  2-C ,  3-P ) :   0.9196 B(  2-C , 19-H ) :   0.9130
B(  2-C , 20-H ) :   0.9249 B(  3-P ,  4-O ) :   1.8664 B(  3-P ,  5-C ) :   0.9196
B(  3-P ,  8-C ) :   0.8632 B(  5-C ,  6-C ) :   1.0618 B(  5-C , 21-H ) :   0.9248
B(  5-C , 22-H ) :   0.9129 B(  6-C ,  7-C ) :   1.1119 B(  6-C , 23-H ) :   0.9334
B(  6-C , 24-H ) :   0.9416 B(  7-C , 25-H ) :   0.9654 B(  7-C , 26-H ) :   0.9625
B(  7-C , 27-H ) :   0.9673 B(  8-C ,  9-C ) :   1.3373 B(  8-C , 13-C ) :   1.3935
B(  9-C , 10-C ) :   1.4039 B(  9-C , 28-H ) :   0.9718 B( 10-C , 11-C ) :   1.3785
B( 10-C , 29-H ) :   0.9751 B( 11-C , 12-C ) :   1.3842 B( 11-C , 30-H ) :   0.9757
B( 12-C , 13-C ) :   1.3626 B( 12-C , 31-H ) :   0.9793 B( 13-C , 32-H ) :   0.9687

Dispersion correction           -0.061662002
FINAL SINGLE POINT ENERGY      -884.921266437138

DIPOLE MOMENT
-------------

Method             : SCF
Type of density    : Electron Density
Multiplicity       :   1
Irrep              :   0
Energy             :  -884.8596044350816783 Eh
Relativity type    :
Basis              : AO
                                X                 Y                 Z
Electronic contribution:      1.005339971       5.781584460       7.009782143
Nuclear contribution   :     -1.076449694      -5.072391074      -8.202220968
                        -----------------------------------------
Total Dipole Moment    :     -0.071109723       0.709193386      -1.192438825
                        -----------------------------------------
Magnitude (a.u.)       :      1.389216399
Magnitude (Debye)      :      3.531107464

Rotational constants in cm-1:             0.018131             0.017580             0.010998
Rotational constants in MHz :           543.542558           527.043295           329.709765

                             ****ORCA TERMINATED NORMALLY****
TOTAL RUN TIME: 0 days 0 hours 1 minutes 41 seconds 565 msec
