                         Program Version 6.0.0  -   RELEASE   -
|  1> ! RIJONX B3LYP def2-SVP D3BJ TIGHTSCF Opt
|  2> %pal
|  3> nprocs 6
|  4> end
|  5>
|  6> * xyz 0 1
|  7> C      5.934957    0.164368   -0.123062
|  8> C      4.980476   -0.744676    0.114453
|  9> C      3.561166   -0.573550   -0.222576
| 10> C      2.595104   -1.177100    0.588396
| 11> C      1.230431   -1.062461    0.290432
| 12> C      0.793658   -0.348330   -0.832589
| 13> C      1.771390    0.237873   -1.653742
| 14> C      3.135240    0.124588   -1.355738
| 15> P     -0.953950   -0.142425   -1.304907
| 16> C     -1.846228   -1.309279   -0.225769
| 17> C     -1.932869   -2.651584   -0.637734
| 18> C     -2.600322   -3.604780    0.136556
| 19> C     -3.196485   -3.232261    1.337164
| 20> C     -3.125019   -1.908656    1.761890
| 21> C     -2.456482   -0.955344    0.986661
| 22> C     -1.400575    1.497822   -0.646445
| 23> C     -2.617963    2.065285   -1.064796
| 24> C     -3.028316    3.319480   -0.604118
| 25> C     -2.226621    4.031520    0.282370
| 26> C     -1.016879    3.489591    0.706892
| 27> C     -0.607072    2.234106    0.245780
| 28> H      5.727411    1.122936   -0.586767
| 29> H      6.963040   -0.032903    0.164636
| 30> H      5.247310   -1.676379    0.608510
| 31> H      2.890554   -1.739408    1.471657
| 32> H      0.524090   -1.541803    0.963388
| 33> H      1.481519    0.794345   -2.543760
| 34> H      3.855110    0.581322   -2.030082
| 35> H     -1.474618   -2.971207   -1.572310
| 36> H     -2.653338   -4.636391   -0.201317
| 37> H     -3.717033   -3.971208    1.940365
| 38> H     -3.590157   -1.612195    2.698620
| 39> H     -2.420769    0.065659    1.357878
| 40> H     -3.265795    1.529623   -1.756884
| 41> H     -3.973780    3.737124   -0.940044
| 42> H     -2.542933    5.007248    0.641190
| 43> H     -0.386399    4.042234    1.398857
| 44> H      0.342147    1.846817    0.606946
| 45> **                         ****END OF INPUT****
 Total Charge           Charge          ....    0
 Multiplicity           Mult            ....    1
 Number of Electrons    NEL             ....  152
Dispersion correction           -0.093807776
FINAL SINGLE POINT ENERGY     -1112.588045482503
Dispersion correction             ... done (  0.1 sec)
Dispersion correction           -0.094517017
FINAL SINGLE POINT ENERGY     -1112.591036292344
Dispersion correction             ... done (  0.1 sec)
Dispersion correction           -0.094683853
FINAL SINGLE POINT ENERGY     -1112.592027470764
Dispersion correction             ... done (  0.1 sec)
FINAL SINGLE POINT ENERGY     -1112.592423111913
FINAL SINGLE POINT ENERGY     -1112.592589099152
FINAL SINGLE POINT ENERGY     -1112.592700712104
FINAL SINGLE POINT ENERGY     -1112.592764228078
FINAL SINGLE POINT ENERGY     -1112.592786497878
Dispersion correction             ... done (  0.1 sec)
Dispersion correction           -0.094585458
FINAL SINGLE POINT ENERGY     -1112.592791128223
Dispersion correction             ... done (  0.1 sec)
Dispersion correction           -0.094583557
FINAL SINGLE POINT ENERGY     -1112.592791847028
Dispersion correction             ... done (  0.1 sec)
                    ***********************HURRAY********************

CARTESIAN COORDINATES (ANGSTROEM)
---------------------------------
  C      5.998869   -0.063789   -0.316285
  C      4.925582   -0.602937    0.280724
  C      3.520026   -0.488923   -0.138558
  C      2.521983   -1.119676    0.625279
  C      1.173049   -1.036530    0.275626
  C      0.775731   -0.319607   -0.861737
  C      1.772122    0.299675   -1.641053
  C      3.113723    0.226178   -1.283623
  P     -0.974039   -0.137361   -1.422561
  C     -1.842303   -1.305381   -0.282609
  C     -1.909200   -2.653340   -0.676755
  C     -2.531690   -3.603906    0.134507
  C     -3.115389   -3.216209    1.345295
  C     -3.067363   -1.876095    1.739193
  C     -2.432617   -0.926081    0.933018
  C     -1.420980    1.496410   -0.680848
  C     -2.627011    2.083128   -1.102347
  C     -3.046750    3.306988   -0.577574
  C     -2.255329    3.972955    0.364224
  C     -1.047450    3.405191    0.779173
  C     -0.632874    2.173555    0.263110
  H      5.924547    0.544587   -1.222027
  H      7.001926   -0.216711    0.089312
  H      5.083420   -1.200152    1.186564
  H      2.812095   -1.683299    1.516730
  H      0.423841   -1.530493    0.897050
  H      1.484485    0.851308   -2.541014
  H      3.859055    0.723650   -1.907826
  H     -1.464842   -2.958182   -1.628914
  H     -2.569824   -4.649239   -0.183045
  H     -3.610777   -3.957242    1.977887
  H     -3.524007   -1.566275    2.683005
  H     -2.393203    0.116776    1.253449
  H     -3.242330    1.571652   -1.848520
  H     -3.990025    3.747399   -0.911204
  H     -2.577797    4.935284    0.769979
  H     -0.423178    3.922032    1.512959
  H      0.308522    1.734662    0.599419

 Multiplicity           Mult            ....    1
 Number of Electrons    NEL             ....  152
 Basis Dimension        Dim             ....  383

ORBITAL ENERGIES
----------------

  NO   OCC          E(Eh)            E(eV)
   0   2.0000     -77.051362     -2096.6742
   1   2.0000     -10.197828      -277.4970
   2   2.0000     -10.194057      -277.3944
   3   2.0000     -10.192509      -277.3523
   4   2.0000     -10.192188      -277.3435
   5   2.0000     -10.192146      -277.3424
   6   2.0000     -10.191999      -277.3384
   7   2.0000     -10.191787      -277.3326
   8   2.0000     -10.191782      -277.3325
   9   2.0000     -10.191672      -277.3295
  10   2.0000     -10.191665      -277.3293
  11   2.0000     -10.190986      -277.3108
  12   2.0000     -10.190974      -277.3105
  13   2.0000     -10.190660      -277.3020
  14   2.0000     -10.190655      -277.3018
  15   2.0000     -10.190536      -277.2986
  16   2.0000     -10.190486      -277.2972
  17   2.0000     -10.190018      -277.2845
  18   2.0000     -10.189920      -277.2818
  19   2.0000     -10.189847      -277.2798
  20   2.0000     -10.186520      -277.1893
  21   2.0000      -6.547064      -178.1547
  22   2.0000      -4.712501      -128.2337
  23   2.0000      -4.712492      -128.2334
  24   2.0000      -4.709592      -128.1545
  25   2.0000      -0.855083       -23.2680
  26   2.0000      -0.847637       -23.0654
  27   2.0000      -0.844175       -22.9712
  28   2.0000      -0.785946       -21.3867
  29   2.0000      -0.756202       -20.5773
  30   2.0000      -0.739771       -20.1302
  31   2.0000      -0.737770       -20.0757
  32   2.0000      -0.737302       -20.0630
  33   2.0000      -0.732495       -19.9322
  34   2.0000      -0.717749       -19.5309
  35   2.0000      -0.646451       -17.5908
  36   2.0000      -0.612804       -16.6752
  37   2.0000      -0.601235       -16.3604
  38   2.0000      -0.599578       -16.3153
  39   2.0000      -0.593945       -16.1621
  40   2.0000      -0.588894       -16.0246
  41   2.0000      -0.558539       -15.1986
  42   2.0000      -0.551460       -15.0060
  43   2.0000      -0.514959       -14.0128
  44   2.0000      -0.509211       -13.8563
  45   2.0000      -0.488639       -13.2965
  46   2.0000      -0.469291       -12.7701
  47   2.0000      -0.454887       -12.3781
  48   2.0000      -0.454585       -12.3699
  49   2.0000      -0.447568       -12.1790
  50   2.0000      -0.445898       -12.1335
  51   2.0000      -0.440568       -11.9885
  52   2.0000      -0.432245       -11.7620
  53   2.0000      -0.421315       -11.4646
  54   2.0000      -0.420637       -11.4461
  55   2.0000      -0.419254       -11.4085
  56   2.0000      -0.409305       -11.1378
  57   2.0000      -0.404760       -11.0141
  58   2.0000      -0.381679       -10.3860
  59   2.0000      -0.374615       -10.1938
  60   2.0000      -0.370219       -10.0742
  61   2.0000      -0.366529        -9.9738
  62   2.0000      -0.356383        -9.6977
  63   2.0000      -0.345879        -9.4118
  64   2.0000      -0.345155        -9.3922
  65   2.0000      -0.339714        -9.2441
  66   2.0000      -0.325426        -8.8553
  67   2.0000      -0.323817        -8.8115
  68   2.0000      -0.305026        -8.3002
  69   2.0000      -0.272358        -7.4112
  70   2.0000      -0.261084        -7.1045
  71   2.0000      -0.260091        -7.0774
  72   2.0000      -0.254469        -6.9244
  73   2.0000      -0.253315        -6.8930
  74   2.0000      -0.237809        -6.4711
  75   2.0000      -0.211528        -5.7560
  76   0.0000      -0.046232        -1.2580
  77   0.0000      -0.024700        -0.6721
  78   0.0000      -0.021018        -0.5719
  79   0.0000      -0.012902        -0.3511
  80   0.0000      -0.003678        -0.1001

MULLIKEN ATOMIC CHARGES
-----------------------
   0 C :   -0.020770
   1 C :   -0.002935
   2 C :    0.099729
   3 C :   -0.020347
   4 C :    0.027046
   5 C :   -0.164726
   6 C :    0.033558
   7 C :   -0.017985
   8 P :    0.363913
   9 C :   -0.166755
  10 C :    0.024603
  11 C :    0.020649
  12 C :    0.023283
  13 C :    0.025070
  14 C :    0.018325
  15 C :   -0.167038
  16 C :    0.026075
  17 C :    0.020533
  18 C :    0.023495
  19 C :    0.024698
  20 C :    0.018568
  21 H :    0.015926
  22 H :    0.023158
  23 H :   -0.017718
  24 H :   -0.028933
  25 H :   -0.002631
  26 H :   -0.018639
  27 H :   -0.030313
  28 H :   -0.015670
  29 H :   -0.015196
  30 H :   -0.015358
  31 H :   -0.017662
  32 H :   -0.001475
  33 H :   -0.015969
  34 H :   -0.015216
  35 H :   -0.015290
  36 H :   -0.017328
  37 H :   -0.000674
Sum of atomic charges:   -0.0000000

LOEWDIN ATOMIC CHARGES
----------------------
   0 C :   -0.046180
   1 C :   -0.021680
   2 C :   -0.025853
   3 C :   -0.019216
   4 C :   -0.029809
   5 C :   -0.174109
   6 C :   -0.025941
   7 C :   -0.013545
   8 P :    0.515005
   9 C :   -0.173665
  10 C :   -0.028923
  11 C :   -0.025529
  12 C :   -0.022953
  13 C :   -0.025298
  14 C :   -0.030086
  15 C :   -0.173760
  16 C :   -0.028554
  17 C :   -0.025415
  18 C :   -0.022742
  19 C :   -0.025322
  20 C :   -0.030198
  21 H :    0.020642
  22 H :    0.026833
  23 H :    0.027338
  24 H :    0.025365
  25 H :    0.030135
  26 H :    0.025479
  27 H :    0.025712
  28 H :    0.024820
  29 H :    0.027660
  30 H :    0.026980
  31 H :    0.027187
  32 H :    0.029391
  33 H :    0.024772
  34 H :    0.027645
  35 H :    0.027011
  36 H :    0.027319
  37 H :    0.029483

  Mayer bond orders larger than 0.100000
B(  0-C ,  1-C ) :   1.9298 B(  0-C , 21-H ) :   0.9433 B(  0-C , 22-H ) :   0.9445
B(  1-C ,  2-C ) :   1.0805 B(  1-C , 23-H ) :   0.9610 B(  2-C ,  3-C ) :   1.3409
B(  2-C ,  7-C ) :   1.3300 B(  3-C ,  4-C ) :   1.3682 B(  3-C , 24-H ) :   0.9886
B(  4-C ,  5-C ) :   1.3844 B(  4-C , 25-H ) :   0.9790 B(  5-C ,  6-C ) :   1.3392
B(  5-C ,  8-P ) :   0.9319 B(  6-C ,  7-C ) :   1.4307 B(  6-C , 26-H ) :   0.9788
B(  7-C , 27-H ) :   0.9840 B(  8-P ,  9-C ) :   0.9304 B(  8-P , 15-C ) :   0.9310
B(  9-C , 10-C ) :   1.3706 B(  9-C , 14-C ) :   1.3863 B( 10-C , 11-C ) :   1.4048
B( 10-C , 28-H ) :   0.9817 B( 11-C , 12-C ) :   1.3758 B( 11-C , 29-H ) :   0.9849
B( 12-C , 13-C ) :   1.3818 B( 12-C , 30-H ) :   0.9844 B( 13-C , 14-C ) :   1.3835
B( 13-C , 31-H ) :   0.9838 B( 14-C , 32-H ) :   0.9794 B( 15-C , 16-C ) :   1.3708
B( 15-C , 20-C ) :   1.3850 B( 16-C , 17-C ) :   1.4043 B( 16-C , 33-H ) :   0.9818
B( 17-C , 18-C ) :   1.3761 B( 17-C , 34-H ) :   0.9849 B( 18-C , 19-C ) :   1.3814
B( 18-C , 35-H ) :   0.9844 B( 19-C , 20-C ) :   1.3836 B( 19-C , 36-H ) :   0.9839
B( 20-C , 37-H ) :   0.9793

Dispersion correction           -0.094581438
FINAL SINGLE POINT ENERGY     -1112.592792018107

DIPOLE MOMENT
-------------

Method             : SCF
Type of density    : Electron Density
Multiplicity       :   1
Irrep              :   0
Energy             : -1112.4982105800670524 Eh
Relativity type    :
Basis              : AO
                                X                 Y                 Z
Electronic contribution:     -6.507414401      -0.773433599      -5.558733202
Nuclear contribution   :      6.527062013       0.842278246       6.073862280
                        -----------------------------------------
Total Dipole Moment    :      0.019647611       0.068844648       0.515129077
                        -----------------------------------------
Magnitude (a.u.)       :      0.520080360
Magnitude (Debye)      :      1.321939218

Rotational constants in cm-1:             0.011656             0.007096             0.005060
Rotational constants in MHz :           349.426021           212.728707           151.700702

                             ****ORCA TERMINATED NORMALLY****
TOTAL RUN TIME: 0 days 0 hours 9 minutes 55 seconds 287 msec
