                         Program Version 6.0.0  -   RELEASE   -
|  1> ! RI BP86 def2-SVP D3BJ TIGHTSCF Opt
|  2> %pal
|  3> nprocs 6
|  4> end
|  5>
|  6> * xyz 0 1
|  7> C     -1.245699   -1.033442   -0.126558
|  8> P     -0.066982    0.141767   -0.897138
|  9> C     -0.281949    1.584298    0.215145
| 10> C      1.515420   -0.524977   -0.252360
| 11> H     -1.078237   -1.129437    0.950370
| 12> H     -2.274989   -0.697080   -0.282251
| 13> H     -1.143197   -2.025279   -0.576637
| 14> H     -1.271052    2.029818    0.073701
| 15> H      0.467609    2.349995   -0.005515
| 16> H     -0.182354    1.303963    1.268011
| 17> H      2.339926    0.152764   -0.492514
| 18> H      1.488444   -0.656778    0.833428
| 19> H      1.733059   -1.495612   -0.707683
| 20> **                         ****END OF INPUT****
 Total Charge           Charge          ....    0
 Multiplicity           Mult            ....    1
 Number of Electrons    NEL             ....   42
Dispersion correction           -0.016074792
FINAL SINGLE POINT ENERGY      -460.944955564477
Dispersion correction             ... done (  0.1 sec)
Dispersion correction           -0.015994453
FINAL SINGLE POINT ENERGY      -460.947333529136
Dispersion correction             ... done (  0.1 sec)
Dispersion correction           -0.015953835
FINAL SINGLE POINT ENERGY      -460.947666288549
Dispersion correction             ... done (  0.1 sec)
FINAL SINGLE POINT ENERGY      -460.947753534062
Dispersion correction             ... done (  0.1 sec)
Dispersion correction           -0.015928501
FINAL SINGLE POINT ENERGY      -460.947762877698
Dispersion correction             ... done (  0.1 sec)
Dispersion correction           -0.015929852
FINAL SINGLE POINT ENERGY      -460.947765279711
Dispersion correction             ... done (  0.1 sec)
                    ***********************HURRAY********************

CARTESIAN COORDINATES (ANGSTROEM)
---------------------------------
  C     -1.258974   -1.046035   -0.120709
  P     -0.069596    0.146992   -0.930021
  C     -0.284355    1.600698    0.224829
  C      1.532614   -0.531938   -0.247843
  H     -1.089618   -1.143644    0.973207
  H     -2.299593   -0.703065   -0.291708
  H     -1.154565   -2.045928   -0.588769
  H     -1.285500    2.051489    0.068992
  H      0.472598    2.375620   -0.012396
  H     -0.182397    1.316514    1.294261
  H      2.363857    0.156196   -0.503338
  H      1.505194   -0.666139    0.854896
  H      1.750333   -1.510760   -0.721403

 Multiplicity           Mult            ....    1
 Number of Electrons    NEL             ....   42
 Basis Dimension        Dim             ....  105

ORBITAL ENERGIES
----------------

  NO   OCC          E(Eh)            E(eV)
   0   2.0000     -76.329954     -2077.0437
   1   2.0000      -9.911692      -269.7108
   2   2.0000      -9.911680      -269.7105
   3   2.0000      -9.911612      -269.7087
   4   2.0000      -6.300429      -171.4434
   5   2.0000      -4.521842      -123.0456
   6   2.0000      -4.521841      -123.0456
   7   2.0000      -4.518079      -122.9432
   8   2.0000      -0.681156       -18.5352
   9   2.0000      -0.612013       -16.6537
  10   2.0000      -0.611998       -16.6533
  11   2.0000      -0.472212       -12.8495
  12   2.0000      -0.386203       -10.5091
  13   2.0000      -0.376278       -10.2391
  14   2.0000      -0.376265       -10.2387
  15   2.0000      -0.351061        -9.5529
  16   2.0000      -0.351042        -9.5523
  17   2.0000      -0.338768        -9.2183
  18   2.0000      -0.287672        -7.8279
  19   2.0000      -0.287659        -7.8276
  20   2.0000      -0.194506        -5.2928
  21   0.0000       0.033006         0.8982
  22   0.0000       0.033017         0.8984
  23   0.0000       0.034109         0.9282
  24   0.0000       0.072051         1.9606
  25   0.0000       0.089503         2.4355

MULLIKEN ATOMIC CHARGES
-----------------------
   0 C :   -0.204701
   1 P :    0.085496
   2 C :   -0.204608
   3 C :   -0.204924
   4 H :    0.048622
   5 H :    0.063815
   6 H :    0.063797
   7 H :    0.063772
   8 H :    0.063799
   9 H :    0.048595
  10 H :    0.063839
  11 H :    0.048636
  12 H :    0.063861
Sum of atomic charges:   -0.0000000

LOEWDIN ATOMIC CHARGES
----------------------
   0 C :   -0.230014
   1 P :    0.422854
   2 C :   -0.229990
   3 C :   -0.230030
   4 H :    0.022709
   5 H :    0.033175
   6 H :    0.033179
   7 H :    0.033164
   8 H :    0.033178
   9 H :    0.022702
  10 H :    0.033182
  11 H :    0.022701
  12 H :    0.033189

  Mayer bond orders larger than 0.100000
B(  0-C ,  1-P ) :   0.9909 B(  0-C ,  4-H ) :   0.9518 B(  0-C ,  5-H ) :   0.9654
B(  0-C ,  6-H ) :   0.9654 B(  1-P ,  2-C ) :   0.9910 B(  1-P ,  3-C ) :   0.9910
B(  2-C ,  7-H ) :   0.9654 B(  2-C ,  8-H ) :   0.9654 B(  2-C ,  9-H ) :   0.9518
B(  3-C , 10-H ) :   0.9654 B(  3-C , 11-H ) :   0.9518 B(  3-C , 12-H ) :   0.9654

Dispersion correction           -0.015931549
FINAL SINGLE POINT ENERGY      -460.947765885137

DIPOLE MOMENT
-------------

Method             : SCF
Type of density    : Electron Density
Multiplicity       :   1
Irrep              :   0
Energy             :  -460.9318343359153687 Eh
Relativity type    :
Basis              : AO
                                X                 Y                 Z
Electronic contribution:     -0.322883435       0.681876135      -4.314482565
Nuclear contribution   :      0.356197172      -0.752504876       4.760993001
                        -----------------------------------------
Total Dipole Moment    :      0.033313737      -0.070628741       0.446510436
                        -----------------------------------------
Magnitude (a.u.)       :      0.453287760
Magnitude (Debye)      :      1.152165922

Rotational constants in cm-1:             0.188525             0.188491             0.121491
Rotational constants in MHz :          5651.840042          5650.830708          3642.214491

                             ****ORCA TERMINATED NORMALLY****
TOTAL RUN TIME: 0 days 0 hours 0 minutes 17 seconds 277 msec
