                         Program Version 6.0.0  -   RELEASE   -
|  1> ! RIJONX B3LYP def2-SVP D3BJ TIGHTSCF Opt
|  2> %pal
|  3> nprocs 6
|  4> end
|  5>
|  6> * xyz 0 1
|  7> C      1.272748    3.471914   -1.046561
|  8> C      0.346384    2.708074   -1.643888
|  9> C     -0.708546    1.933676   -0.910283
| 10> P     -0.293127    0.197684   -1.313042
| 11> C      1.176479   -0.094172   -0.262889
| 12> C      2.386247   -0.445474   -0.880318
| 13> C      3.536907   -0.673236   -0.121106
| 14> C      3.493040   -0.552939    1.265661
| 15> C      2.299788   -0.204702    1.893772
| 16> C      1.149243    0.024284    1.134685
| 17> C     -1.567374   -0.782322   -0.438470
| 18> C     -2.831776   -0.269341   -0.114847
| 19> C     -3.785539   -1.058682    0.537553
| 20> C     -3.496192   -2.379660    0.866128
| 21> C     -2.256221   -2.915571    0.535175
| 22> C     -1.304947   -2.126136   -0.117226
| 23> H      1.337221    3.550108    0.034406
| 24> H      2.001725    4.021816   -1.633530
| 25> H      0.326938    2.677706   -2.732878
| 26> H     -1.683847    2.222191   -1.313994
| 27> H     -0.709543    2.143160    0.163724
| 28> H      2.444614   -0.541902   -1.962477
| 29> H      4.466359   -0.943421   -0.615132
| 30> H      4.387742   -0.730772    1.856187
| 31> H      2.261271   -0.112406    2.975903
| 32> H      0.229444    0.289659    1.650678
| 33> H     -3.110197    0.748965   -0.368090
| 34> H     -4.758378   -0.639933    0.782312
| 35> H     -4.238164   -2.992339    1.370878
| 36> H     -2.025310   -3.949135    0.779084
| 37> H     -0.346990   -2.577093   -0.371415
| 38> **                         ****END OF INPUT****
 Total Charge           Charge          ....    0
 Multiplicity           Mult            ....    1
 Number of Electrons    NEL             ....  120
Dispersion correction           -0.072212535
FINAL SINGLE POINT ENERGY      -921.074974514561
Dispersion correction             ... done (  0.1 sec)
Dispersion correction           -0.072310570
FINAL SINGLE POINT ENERGY      -921.079141148028
Dispersion correction             ... done (  0.1 sec)
Dispersion correction           -0.072503063
FINAL SINGLE POINT ENERGY      -921.080605497530
Dispersion correction             ... done (  0.1 sec)
FINAL SINGLE POINT ENERGY      -921.080865383740
FINAL SINGLE POINT ENERGY      -921.080959043255
FINAL SINGLE POINT ENERGY      -921.081019040354
FINAL SINGLE POINT ENERGY      -921.081062032452
FINAL SINGLE POINT ENERGY      -921.081093535706
FINAL SINGLE POINT ENERGY      -921.081107455461
FINAL SINGLE POINT ENERGY      -921.081115015278
FINAL SINGLE POINT ENERGY      -921.081119434929
FINAL SINGLE POINT ENERGY      -921.081121994790
FINAL SINGLE POINT ENERGY      -921.081123762795
FINAL SINGLE POINT ENERGY      -921.081124442844
Dispersion correction             ... done (  0.1 sec)
Dispersion correction           -0.072778718
FINAL SINGLE POINT ENERGY      -921.081124795124
Dispersion correction             ... done (  0.1 sec)
Dispersion correction           -0.072785745
FINAL SINGLE POINT ENERGY      -921.081124933190
Dispersion correction             ... done (  0.1 sec)
                    ***********************HURRAY********************

CARTESIAN COORDINATES (ANGSTROEM)
---------------------------------
  C      1.384913    3.267182   -1.196928
  C      0.393439    2.633263   -1.831107
  C     -0.640195    1.781661   -1.161553
  P     -0.251419   -0.047350   -1.423246
  C      1.183495   -0.188830   -0.262827
  C      2.473973   -0.103581   -0.809725
  C      3.602437   -0.144497    0.014250
  C      3.453916   -0.282752    1.396720
  C      2.172815   -0.376723    1.951232
  C      1.045365   -0.328394    1.128234
  C     -1.579425   -0.861678   -0.431441
  C     -2.643664   -0.188037    0.187931
  C     -3.626465   -0.896819    0.888629
  C     -3.556794   -2.287522    0.988047
  C     -2.500533   -2.971005    0.374505
  C     -1.529220   -2.265337   -0.335054
  H      1.489260    3.217255   -0.108220
  H      2.129865    3.852289   -1.743149
  H      0.338271    2.687046   -2.925535
  H     -1.634150    1.955502   -1.607328
  H     -0.695791    1.997746   -0.082857
  H      2.592392   -0.001793   -1.891651
  H      4.600433   -0.073408   -0.426178
  H      4.335104   -0.321499    2.042421
  H      2.051174   -0.488001    3.032104
  H      0.048986   -0.402469    1.570196
  H     -2.716779    0.899383    0.135807
  H     -4.448084   -0.354012    1.363562
  H     -4.323044   -2.839138    1.538542
  H     -2.438168   -4.060184    0.444051
  H     -0.712109   -2.808298   -0.819432

 Multiplicity           Mult            ....    1
 Number of Electrons    NEL             ....  120
 Basis Dimension        Dim             ....  303

ORBITAL ENERGIES
----------------

  NO   OCC          E(Eh)            E(eV)
   0   2.0000     -77.048621     -2096.5996
   1   2.0000     -10.193193      -277.3709
   2   2.0000     -10.192797      -277.3601
   3   2.0000     -10.192035      -277.3394
   4   2.0000     -10.191969      -277.3376
   5   2.0000     -10.191684      -277.3298
   6   2.0000     -10.191396      -277.3220
   7   2.0000     -10.191142      -277.3151
   8   2.0000     -10.190222      -277.2900
   9   2.0000     -10.189802      -277.2786
  10   2.0000     -10.189045      -277.2580
  11   2.0000     -10.188681      -277.2481
  12   2.0000     -10.188460      -277.2421
  13   2.0000     -10.188240      -277.2361
  14   2.0000     -10.188139      -277.2333
  15   2.0000     -10.178207      -276.9631
  16   2.0000      -6.544922      -178.0964
  17   2.0000      -4.710438      -128.1775
  18   2.0000      -4.710188      -128.1707
  19   2.0000      -4.707308      -128.0924
  20   2.0000      -0.849515       -23.1165
  21   2.0000      -0.842834       -22.9347
  22   2.0000      -0.786874       -21.4119
  23   2.0000      -0.752323       -20.4718
  24   2.0000      -0.738425       -20.0936
  25   2.0000      -0.735354       -20.0100
  26   2.0000      -0.731715       -19.9110
  27   2.0000      -0.686524       -18.6813
  28   2.0000      -0.623595       -16.9689
  29   2.0000      -0.598981       -16.2991
  30   2.0000      -0.597539       -16.2599
  31   2.0000      -0.588957       -16.0263
  32   2.0000      -0.557483       -15.1699
  33   2.0000      -0.538414       -14.6510
  34   2.0000      -0.514563       -14.0020
  35   2.0000      -0.495952       -13.4955
  36   2.0000      -0.468479       -12.7480
  37   2.0000      -0.453621       -12.3437
  38   2.0000      -0.452783       -12.3209
  39   2.0000      -0.447006       -12.1637
  40   2.0000      -0.439497       -11.9593
  41   2.0000      -0.428873       -11.6702
  42   2.0000      -0.419298       -11.4097
  43   2.0000      -0.418066       -11.3762
  44   2.0000      -0.409123       -11.1328
  45   2.0000      -0.393592       -10.7102
  46   2.0000      -0.380332       -10.3494
  47   2.0000      -0.368097       -10.0164
  48   2.0000      -0.365820        -9.9545
  49   2.0000      -0.352264        -9.5856
  50   2.0000      -0.345870        -9.4116
  51   2.0000      -0.342824        -9.3287
  52   2.0000      -0.336563        -9.1583
  53   2.0000      -0.319691        -8.6992
  54   2.0000      -0.270914        -7.3719
  55   2.0000      -0.260489        -7.0883
  56   2.0000      -0.256006        -6.9663
  57   2.0000      -0.255449        -6.9511
  58   2.0000      -0.248231        -6.7547
  59   2.0000      -0.218604        -5.9485
  60   0.0000      -0.022830        -0.6212
  61   0.0000      -0.014869        -0.4046
  62   0.0000      -0.014788        -0.4024
  63   0.0000      -0.002661        -0.0724
  64   0.0000       0.008992         0.2447

MULLIKEN ATOMIC CHARGES
-----------------------
   0 C :   -0.008375
   1 C :   -0.062966
   2 C :   -0.085757
   3 P :    0.269624
   4 C :   -0.142902
   5 C :    0.036829
   6 C :    0.016055
   7 C :    0.023718
   8 C :    0.023001
   9 C :    0.023210
  10 C :   -0.142897
  11 C :   -0.006325
  12 C :    0.027704
  13 C :    0.021455
  14 C :    0.021179
  15 C :    0.023063
  16 H :    0.018903
  17 H :    0.019174
  18 H :    0.007673
  19 H :    0.047730
  20 H :    0.034290
  21 H :   -0.020797
  22 H :   -0.017447
  23 H :   -0.016489
  24 H :   -0.018935
  25 H :   -0.006728
  26 H :   -0.019871
  27 H :   -0.018684
  28 H :   -0.015622
  29 H :   -0.015030
  30 H :   -0.014781
Sum of atomic charges:   -0.0000000

LOEWDIN ATOMIC CHARGES
----------------------
   0 C :   -0.056509
   1 C :   -0.041298
   2 C :   -0.167698
   3 P :    0.500862
   4 C :   -0.172262
   5 C :   -0.024915
   6 C :   -0.027088
   7 C :   -0.022685
   8 C :   -0.027373
   9 C :   -0.028273
  10 C :   -0.174925
  11 C :   -0.040856
  12 C :   -0.024517
  13 C :   -0.025133
  14 C :   -0.023408
  15 C :   -0.026686
  16 H :    0.023047
  17 H :    0.023507
  18 H :    0.024414
  19 H :    0.029002
  20 H :    0.022546
  21 H :    0.022668
  22 H :    0.026837
  23 H :    0.026487
  24 H :    0.026421
  25 H :    0.027476
  26 H :    0.023145
  27 H :    0.026829
  28 H :    0.026983
  29 H :    0.027913
  30 H :    0.025486

  Mayer bond orders larger than 0.100000
B(  0-C ,  1-C ) :   2.0093 B(  0-C , 16-H ) :   0.9493 B(  0-C , 17-H ) :   0.9517
B(  1-C ,  2-C ) :   1.0340 B(  1-C , 18-H ) :   0.9582 B(  2-C ,  3-P ) :   0.9579
B(  2-C , 19-H ) :   0.9253 B(  2-C , 20-H ) :   0.9225 B(  3-P ,  4-C ) :   0.9327
B(  3-P , 10-C ) :   0.9130 B(  4-C ,  5-C ) :   1.3877 B(  4-C ,  9-C ) :   1.3812
B(  5-C ,  6-C ) :   1.3902 B(  5-C , 21-H ) :   0.9798 B(  6-C ,  7-C ) :   1.3863
B(  6-C , 22-H ) :   0.9851 B(  7-C ,  8-C ) :   1.3729 B(  7-C , 23-H ) :   0.9846
B(  8-C ,  9-C ) :   1.3974 B(  8-C , 24-H ) :   0.9832 B(  9-C , 25-H ) :   0.9771
B( 10-C , 11-C ) :   1.3852 B( 10-C , 15-C ) :   1.3683 B( 11-C , 12-C ) :   1.3803
B( 11-C , 26-H ) :   0.9787 B( 12-C , 13-C ) :   1.3928 B( 12-C , 27-H ) :   0.9819
B( 13-C , 14-C ) :   1.3680 B( 13-C , 28-H ) :   0.9845 B( 14-C , 15-C ) :   1.4192
B( 14-C , 29-H ) :   0.9847 B( 15-C , 30-H ) :   0.9802

Dispersion correction           -0.072781811
FINAL SINGLE POINT ENERGY      -921.081124966682

DIPOLE MOMENT
-------------

Method             : SCF
Type of density    : Electron Density
Multiplicity       :   1
Irrep              :   0
Energy             :  -921.0083431554355684 Eh
Relativity type    :
Basis              : AO
                                X                 Y                 Z
Electronic contribution:     -1.537093907      -5.176393841      -3.230052856
Nuclear contribution   :      1.477211454       5.243070738       3.668524248
                        -----------------------------------------
Total Dipole Moment    :     -0.059882453       0.066676897       0.438471392
                        -----------------------------------------
Magnitude (a.u.)       :      0.447536455
Magnitude (Debye)      :      1.137547267

Rotational constants in cm-1:             0.024138             0.011659             0.009131
Rotational constants in MHz :           723.651721           349.515561           273.729638

                             ****ORCA TERMINATED NORMALLY****
TOTAL RUN TIME: 0 days 0 hours 9 minutes 38 seconds 192 msec
