                         Program Version 6.0.0  -   RELEASE   -
|  1> ! RIJONX B3LYP def2-SVP D3BJ TIGHTSCF Opt
|  2> %pal
|  3> nprocs 6
|  4> end
|  5>
|  6> * xyz 0 1
|  7> C     -2.095146   -1.696748    0.738402
|  8> C     -0.758087   -1.447327    0.047849
|  9> P      0.106602    0.061776    0.702668
| 10> C     -0.879363    1.386367   -0.150092
| 11> C     -0.374019    2.788154    0.176131
| 12> C     -1.230774    3.830414   -0.487017
| 13> O     -2.192249    3.647029   -1.213328
| 14> O     -0.819309    5.080334   -0.196700
| 15> C      1.620808    0.051317   -0.374801
| 16> C      2.642561   -0.990924    0.068546
| 17> C      3.873473   -0.929257   -0.792357
| 18> O      4.078886   -0.190846   -1.740063
| 19> O      4.803051   -1.825762   -0.407587
| 20> C     -2.735063   -2.954683    0.220519
| 21> O     -2.309377   -3.701161   -0.643861
| 22> O     -3.908820   -3.211155    0.830769
| 23> H     -2.787476   -0.867645    0.556940
| 24> H     -1.951742   -1.807526    1.819574
| 25> H     -0.105411   -2.313006    0.208106
| 26> H     -0.899345   -1.353484   -1.035222
| 27> H     -0.867335    1.218626   -1.233384
| 28> H     -1.923065    1.298027    0.172322
| 29> H      0.653995    2.923155   -0.176886
| 30> H     -0.402053    2.961993    1.258149
| 31> H     -1.444492    5.659396   -0.681193
| 32> H      1.332188   -0.116930   -1.418924
| 33> H      2.080527    1.045143   -0.329680
| 34> H      2.227063   -2.001279   -0.010209
| 35> H      2.943935   -0.812481    1.107344
| 36> H      5.543150   -1.691664   -1.036214
| 37> H     -4.223115   -4.039854    0.411989
| 38> **                         ****END OF INPUT****
 Total Charge           Charge          ....    0
 Multiplicity           Mult            ....    1
 Number of Electrons    NEL             ....  132
Dispersion correction           -0.055840389
FINAL SINGLE POINT ENERGY     -1143.627749585215
Dispersion correction             ... done (  0.1 sec)
Dispersion correction           -0.055579396
FINAL SINGLE POINT ENERGY     -1143.631151164465
Dispersion correction             ... done (  0.1 sec)
Dispersion correction           -0.055475387
FINAL SINGLE POINT ENERGY     -1143.631817232982
Dispersion correction             ... done (  0.1 sec)
FINAL SINGLE POINT ENERGY     -1143.631968466371
FINAL SINGLE POINT ENERGY     -1143.632241530920
FINAL SINGLE POINT ENERGY     -1143.632286072075
FINAL SINGLE POINT ENERGY     -1143.632366572660
FINAL SINGLE POINT ENERGY     -1143.632397427390
FINAL SINGLE POINT ENERGY     -1143.632446954739
FINAL SINGLE POINT ENERGY     -1143.632469711618
Dispersion correction             ... done (  0.1 sec)
Dispersion correction           -0.055501639
FINAL SINGLE POINT ENERGY     -1143.632476031118
Dispersion correction             ... done (  0.1 sec)
Dispersion correction           -0.055502132
FINAL SINGLE POINT ENERGY     -1143.632477249414
Dispersion correction             ... done (  0.1 sec)
                    ***********************HURRAY********************

CARTESIAN COORDINATES (ANGSTROEM)
---------------------------------
  C     -2.114938   -1.693953    0.671374
  C     -0.753043   -1.448792    0.030761
  P      0.107975    0.063863    0.707203
  C     -0.885116    1.382699   -0.165817
  C     -0.375293    2.792821    0.110709
  C     -1.304172    3.865452   -0.415708
  O     -2.422989    3.686500   -0.828699
  O     -0.735526    5.086550   -0.357023
  C      1.619623    0.058305   -0.389761
  C      2.632261   -1.013740   -0.002045
  C      3.945930   -0.873353   -0.740315
  O      4.278590    0.072239   -1.410808
  O      4.741177   -1.944636   -0.545903
  C     -2.708132   -3.033831    0.292867
  O     -2.127824   -3.924577   -0.276487
  O     -3.992653   -3.137234    0.689276
  H     -2.847756   -0.912590    0.412423
  H     -2.044233   -1.673260    1.774172
  H     -0.106906   -2.318876    0.227574
  H     -0.851150   -1.377186   -1.066321
  H     -0.909822    1.188685   -1.252072
  H     -1.926194    1.305884    0.185873
  H      0.624617    2.969543   -0.317791
  H     -0.262197    2.968439    1.196022
  H     -1.395290    5.719331   -0.689839
  H      1.326088   -0.054558   -1.447779
  H      2.098883    1.046450   -0.305177
  H      2.251943   -2.033237   -0.176729
  H      2.863186   -0.969929    1.077918
  H      5.567764   -1.771339   -1.028779
  H     -4.294804   -4.025672    0.432672

 Multiplicity           Mult            ....    1
 Number of Electrons    NEL             ....  132
 Basis Dimension        Dim             ....  303

ORBITAL ENERGIES
----------------

  NO   OCC          E(Eh)            E(eV)
   0   2.0000     -77.045986     -2096.5279
   1   2.0000     -19.181908      -521.9662
   2   2.0000     -19.181898      -521.9660
   3   2.0000     -19.181889      -521.9657
   4   2.0000     -19.125468      -520.4304
   5   2.0000     -19.125450      -520.4299
   6   2.0000     -19.125432      -520.4295
   7   2.0000     -10.318008      -280.7673
   8   2.0000     -10.317995      -280.7669
   9   2.0000     -10.317985      -280.7666
  10   2.0000     -10.207951      -277.7725
  11   2.0000     -10.207924      -277.7717
  12   2.0000     -10.207918      -277.7716
  13   2.0000     -10.193116      -277.3688
  14   2.0000     -10.193094      -277.3682
  15   2.0000     -10.193034      -277.3666
  16   2.0000      -6.543588      -178.0601
  17   2.0000      -4.708928      -128.1364
  18   2.0000      -4.708925      -128.1364
  19   2.0000      -4.705941      -128.0552
  20   2.0000      -1.098480       -29.8912
  21   2.0000      -1.098478       -29.8911
  22   2.0000      -1.098460       -29.8906
  23   2.0000      -1.006399       -27.3855
  24   2.0000      -1.006375       -27.3849
  25   2.0000      -1.006371       -27.3848
  26   2.0000      -0.806215       -21.9382
  27   2.0000      -0.784083       -21.3360
  28   2.0000      -0.784058       -21.3353
  29   2.0000      -0.711115       -19.3504
  30   2.0000      -0.666432       -18.1345
  31   2.0000      -0.666404       -18.1338
  32   2.0000      -0.602546       -16.3961
  33   2.0000      -0.584417       -15.9028
  34   2.0000      -0.584327       -15.9003
  35   2.0000      -0.536315       -14.5939
  36   2.0000      -0.501614       -13.6496
  37   2.0000      -0.501541       -13.6476
  38   2.0000      -0.488221       -13.2852
  39   2.0000      -0.485973       -13.2240
  40   2.0000      -0.485965       -13.2238
  41   2.0000      -0.479478       -13.0473
  42   2.0000      -0.479461       -13.0468
  43   2.0000      -0.477788       -13.0013
  44   2.0000      -0.474485       -12.9114
  45   2.0000      -0.437921       -11.9164
  46   2.0000      -0.426981       -11.6187
  47   2.0000      -0.426908       -11.6167
  48   2.0000      -0.408495       -11.1157
  49   2.0000      -0.408452       -11.1145
  50   2.0000      -0.395339       -10.7577
  51   2.0000      -0.389029       -10.5860
  52   2.0000      -0.388995       -10.5851
  53   2.0000      -0.386391       -10.5142
  54   2.0000      -0.371379       -10.1057
  55   2.0000      -0.357585        -9.7304
  56   2.0000      -0.357524        -9.7287
  57   2.0000      -0.325304        -8.8520
  58   2.0000      -0.325298        -8.8518
  59   2.0000      -0.325093        -8.8462
  60   2.0000      -0.321170        -8.7395
  61   2.0000      -0.321105        -8.7377
  62   2.0000      -0.281712        -7.6658
  63   2.0000      -0.281323        -7.6552
  64   2.0000      -0.281300        -7.6546
  65   2.0000      -0.234198        -6.3729
  66   0.0000       0.004492         0.1222
  67   0.0000       0.004568         0.1243
  68   0.0000       0.008381         0.2281
  69   0.0000       0.043412         1.1813
  70   0.0000       0.043551         1.1851

MULLIKEN ATOMIC CHARGES
-----------------------
   0 C :    0.035097
   1 C :   -0.143173
   2 P :    0.161910
   3 C :   -0.143359
   4 C :    0.035637
   5 C :    0.111057
   6 O :   -0.218238
   7 O :   -0.178656
   8 C :   -0.143174
   9 C :    0.034917
  10 C :    0.111002
  11 O :   -0.218245
  12 O :   -0.178615
  13 C :    0.111038
  14 O :   -0.218214
  15 O :   -0.178634
  16 H :    0.040133
  17 H :    0.043973
  18 H :    0.046771
  19 H :    0.029260
  20 H :    0.029331
  21 H :    0.046480
  22 H :    0.039972
  23 H :    0.043908
  24 H :    0.179837
  25 H :    0.029299
  26 H :    0.046719
  27 H :    0.040262
  28 H :    0.044013
  29 H :    0.179843
  30 H :    0.179853
Sum of atomic charges:   -0.0000000

LOEWDIN ATOMIC CHARGES
----------------------
   0 C :   -0.069336
   1 C :   -0.170054
   2 P :    0.454459
   3 C :   -0.169993
   4 C :   -0.069321
   5 C :    0.083004
   6 O :   -0.181302
   7 O :   -0.044034
   8 C :   -0.170058
   9 C :   -0.069296
  10 C :    0.083020
  11 O :   -0.181287
  12 O :   -0.044008
  13 C :    0.083004
  14 O :   -0.181290
  15 O :   -0.044005
  16 H :    0.040125
  17 H :    0.046173
  18 H :    0.027628
  19 H :    0.021243
  20 H :    0.021234
  21 H :    0.027622
  22 H :    0.040147
  23 H :    0.046208
  24 H :    0.094957
  25 H :    0.021200
  26 H :    0.027652
  27 H :    0.040187
  28 H :    0.046193
  29 H :    0.094960
  30 H :    0.094968

  Mayer bond orders larger than 0.100000
B(  0-C ,  1-C ) :   1.0549 B(  0-C , 13-C ) :   0.9749 B(  0-C , 16-H ) :   0.9252
B(  0-C , 17-H ) :   0.9138 B(  1-C ,  2-P ) :   0.9673 B(  1-C , 18-H ) :   0.9346
B(  1-C , 19-H ) :   0.9294 B(  2-P ,  3-C ) :   0.9675 B(  2-P ,  8-C ) :   0.9677
B(  3-C ,  4-C ) :   1.0548 B(  3-C , 20-H ) :   0.9294 B(  3-C , 21-H ) :   0.9347
B(  4-C ,  5-C ) :   0.9749 B(  4-C , 22-H ) :   0.9254 B(  4-C , 23-H ) :   0.9138
B(  5-C ,  6-O ) :   2.1043 B(  5-C ,  7-O ) :   1.2388 B(  7-O , 24-H ) :   0.9463
B(  8-C ,  9-C ) :   1.0549 B(  8-C , 25-H ) :   0.9294 B(  8-C , 26-H ) :   0.9347
B(  9-C , 10-C ) :   0.9750 B(  9-C , 27-H ) :   0.9252 B(  9-C , 28-H ) :   0.9139
B( 10-C , 11-O ) :   2.1043 B( 10-C , 12-O ) :   1.2389 B( 12-O , 29-H ) :   0.9463
B( 13-C , 14-O ) :   2.1043 B( 13-C , 15-O ) :   1.2388 B( 15-O , 30-H ) :   0.9463

Dispersion correction           -0.055502406
FINAL SINGLE POINT ENERGY     -1143.632477736398

DIPOLE MOMENT
-------------

Method             : SCF
Type of density    : Electron Density
Multiplicity       :   1
Irrep              :   0
Energy             : -1143.5769753308341024 Eh
Relativity type    :
Basis              : AO
                                X                 Y                 Z
Electronic contribution:      0.051773590       0.020506971       0.340015739
Nuclear contribution   :     -0.010832375       0.004280346       0.004202079
                        -----------------------------------------
Total Dipole Moment    :      0.040941215       0.024787317       0.344217817
                        -----------------------------------------
Magnitude (a.u.)       :      0.347529135
Magnitude (Debye)      :      0.883348861

Rotational constants in cm-1:             0.009660             0.009638             0.005010
Rotational constants in MHz :           289.611945           288.939348           150.194787

                             ****ORCA TERMINATED NORMALLY****
TOTAL RUN TIME: 0 days 0 hours 5 minutes 30 seconds 746 msec
