                         Program Version 6.0.0  -   RELEASE   -
|  1> ! RIJCOSX M062X def2-TZVP D3ZERO NormalSCF
|  2> %pal
|  3> nprocs 6
|  4> end
|  5>
|  6> * xyz 0 1
|  7>   C          -2.78688506032424     -2.98048941366609      0.46367145191696
|  8>   C          -2.33920624238383     -2.50729438870092     -0.78204973036637
|  9>   C          -1.34676402391512     -1.51619412754973     -0.84156507836212
| 10>   C          -0.80200397359762     -0.99269373631400      0.34912103282993
| 11>   C          -1.24368734810890     -1.47772818431643      1.59610852232447
| 12>   C          -2.23688633312830     -2.46767156544479      1.65115563058123
| 13>   P           0.48488412731701      0.30808357148898      0.38417341408261
| 14>   O           1.16269900745910      0.41077297260148      1.75000375126036
| 15>   C           1.63358958001523     -0.04738792296638     -1.00997604366609
| 16>   C           2.22923116839195     -1.46583384893924     -1.01987317974331
| 17>   C           2.83242925784072     -1.90025819815342      0.32883176168799
| 18>   N           3.72187469799467     -0.87125487903764      0.87129246001425
| 19>   C          -0.35106829336458      1.87936591078634     -0.05511278255392
| 20>   C          -0.14387266447530      2.96255198294822      0.82122421730396
| 21>   C          -0.73845667723595      4.20542651802829      0.55055431350605
| 22>   C          -1.54033064888710      4.36802713992186     -0.59157223747079
| 23>   C          -1.75205817831518      3.28577085136007     -1.46459530077531
| 24>   C          -1.15987098598120      2.04198289471486     -1.19793585085722
| 25>   H          -3.56429712295496     -3.75865553778153      0.50772684263767
| 26>   H          -2.76138312566871     -2.91719073826019     -1.71236486771571
| 27>   H          -0.99084629437359     -1.16349041923999     -1.82205586947016
| 28>   H          -0.78305254341503     -1.06973279619648      2.50931634812942
| 29>   H          -2.58158676291878     -2.84506531877757      2.62618596486114
| 30>   H           1.12301234403813      0.19235516694132     -1.96637314823797
| 31>   H           2.44202673292311      0.70327126472028     -0.87803514098749
| 32>   H           1.45329940190588     -2.20139928308026     -1.32239204005889
| 33>   H           3.02062562725658     -1.48604849144821     -1.79942650361391
| 34>   H           1.99313186094175     -2.17421004756180      1.01827562199013
| 35>   H           3.40820862793601     -2.83546021301412      0.15967406458234
| 36>   H           3.12173968722028     -0.19296961488372      1.37374061396315
| 37>   H           4.32157781975847     -1.28899892645857      1.59365884124612
| 38>   H           0.48473183932405      2.80027663951412      1.71065293882396
| 39>   H          -0.57635481975929      5.05164519193425      1.23587129036303
| 40>   H          -2.00702362466093      5.34246534912664     -0.80292698424223
| 41>   H          -2.38530760175560      3.41182201090530     -2.35618005340856
| 42>   H          -1.34211745509875      1.19621318679903     -1.87880327057470
| 43> **                         ****END OF INPUT****

CARTESIAN COORDINATES (ANGSTROEM)
---------------------------------
  C     -2.786885   -2.980489    0.463671
  C     -2.339206   -2.507294   -0.782050
  C     -1.346764   -1.516194   -0.841565
  C     -0.802004   -0.992694    0.349121
  C     -1.243687   -1.477728    1.596109
  C     -2.236886   -2.467672    1.651156
  P      0.484884    0.308084    0.384173
  O      1.162699    0.410773    1.750004
  C      1.633590   -0.047388   -1.009976
  C      2.229231   -1.465834   -1.019873
  C      2.832429   -1.900258    0.328832
  N      3.721875   -0.871255    0.871292
  C     -0.351068    1.879366   -0.055113
  C     -0.143873    2.962552    0.821224
  C     -0.738457    4.205427    0.550554
  C     -1.540331    4.368027   -0.591572
  C     -1.752058    3.285771   -1.464595
  C     -1.159871    2.041983   -1.197936
  H     -3.564297   -3.758656    0.507727
  H     -2.761383   -2.917191   -1.712365
  H     -0.990846   -1.163490   -1.822056
  H     -0.783053   -1.069733    2.509316
  H     -2.581587   -2.845065    2.626186
  H      1.123012    0.192355   -1.966373
  H      2.442027    0.703271   -0.878035
  H      1.453299   -2.201399   -1.322392
  H      3.020626   -1.486048   -1.799427
  H      1.993132   -2.174210    1.018276
  H      3.408209   -2.835460    0.159674
  H      3.121740   -0.192970    1.373741
  H      4.321578   -1.288999    1.593659
  H      0.484732    2.800277    1.710653
  H     -0.576355    5.051645    1.235871
  H     -2.007024    5.342465   -0.802927
  H     -2.385308    3.411822   -2.356180
  H     -1.342117    1.196213   -1.878803

 Total Charge           Charge          ....    0
 Multiplicity           Mult            ....    1
 Number of Electrons    NEL             ....  138
 Basis Dimension        Dim             ....  672

ORBITAL ENERGIES
----------------

  NO   OCC          E(Eh)            E(eV)
   0   2.0000     -78.096804     -2125.1221
   1   2.0000     -19.572070      -532.5831
   2   2.0000     -14.707172      -400.2025
   3   2.0000     -10.568029      -287.5707
   4   2.0000     -10.564394      -287.4718
   5   2.0000     -10.563529      -287.4482
   6   2.0000     -10.562407      -287.4177
   7   2.0000     -10.561507      -287.3932
   8   2.0000     -10.560891      -287.3764
   9   2.0000     -10.560317      -287.3608
  10   2.0000     -10.559602      -287.3414
  11   2.0000     -10.559492      -287.3384
  12   2.0000     -10.558751      -287.3182
  13   2.0000     -10.557413      -287.2818
  14   2.0000     -10.556636      -287.2607
  15   2.0000     -10.551371      -287.1174
  16   2.0000     -10.549988      -287.0798
  17   2.0000     -10.540092      -286.8105
  18   2.0000      -6.903443      -187.8522
  19   2.0000      -5.020583      -136.6170
  20   2.0000      -5.020266      -136.6084
  21   2.0000      -5.018906      -136.5714
  22   2.0000      -1.067160       -29.0389
  23   2.0000      -0.968707       -26.3599
  24   2.0000      -0.967809       -26.3354
  25   2.0000      -0.963612       -26.2212
  26   2.0000      -0.879370       -23.9289
  27   2.0000      -0.853841       -23.2342
  28   2.0000      -0.852249       -23.1909
  29   2.0000      -0.849188       -23.1076
  30   2.0000      -0.847435       -23.0599
  31   2.0000      -0.769252       -20.9324
  32   2.0000      -0.718344       -19.5471
  33   2.0000      -0.698991       -19.0205
  34   2.0000      -0.694823       -18.9071
  35   2.0000      -0.687064       -18.6960
  36   2.0000      -0.659309       -17.9407
  37   2.0000      -0.627097       -17.0642
  38   2.0000      -0.600710       -16.3461
  39   2.0000      -0.581202       -15.8153
  40   2.0000      -0.558216       -15.1898
  41   2.0000      -0.543798       -14.7975
  42   2.0000      -0.532993       -14.5035
  43   2.0000      -0.528704       -14.3868
  44   2.0000      -0.525343       -14.2953
  45   2.0000      -0.521121       -14.1804
  46   2.0000      -0.499324       -13.5873
  47   2.0000      -0.496561       -13.5121
  48   2.0000      -0.493234       -13.4216
  49   2.0000      -0.492662       -13.4060
  50   2.0000      -0.470610       -12.8059
  51   2.0000      -0.465380       -12.6636
  52   2.0000      -0.450190       -12.2503
  53   2.0000      -0.447488       -12.1768
  54   2.0000      -0.443083       -12.0569
  55   2.0000      -0.423868       -11.5340
  56   2.0000      -0.414016       -11.2659
  57   2.0000      -0.413769       -11.2592
  58   2.0000      -0.410472       -11.1695
  59   2.0000      -0.406254       -11.0547
  60   2.0000      -0.395982       -10.7752
  61   2.0000      -0.388866       -10.5816
  62   2.0000      -0.341092        -9.2816
  63   2.0000      -0.336368        -9.1530
  64   2.0000      -0.322312        -8.7705
  65   2.0000      -0.320675        -8.7260
  66   2.0000      -0.316704        -8.6180
  67   2.0000      -0.312745        -8.5102
  68   2.0000      -0.293338        -7.9821
  69   0.0000      -0.017389        -0.4732
  70   0.0000      -0.000216        -0.0059
  71   0.0000       0.006234         0.1696
  72   0.0000       0.011374         0.3095
  73   0.0000       0.053278         1.4498

MULLIKEN ATOMIC CHARGES
-----------------------
   0 C :   -0.136853
   1 C :   -0.155694
   2 C :   -0.222364
   3 C :   -0.019394
   4 C :   -0.149401
   5 C :   -0.135145
   6 P :    0.604981
   7 O :   -0.652729
   8 C :   -0.475242
   9 C :   -0.189181
  10 C :   -0.226309
  11 N :   -0.566056
  12 C :    0.002297
  13 C :   -0.153397
  14 C :   -0.136792
  15 C :   -0.137130
  16 C :   -0.165632
  17 C :   -0.183160
  18 H :    0.149543
  19 H :    0.148260
  20 H :    0.181784
  21 H :    0.194633
  22 H :    0.150794
  23 H :    0.185433
  24 H :    0.211830
  25 H :    0.149810
  26 H :    0.139974
  27 H :    0.156774
  28 H :    0.134626
  29 H :    0.277200
  30 H :    0.222126
  31 H :    0.194927
  32 H :    0.150281
  33 H :    0.148747
  34 H :    0.146423
  35 H :    0.154037
Sum of atomic charges:   -0.0000000

LOEWDIN ATOMIC CHARGES
----------------------
   0 C :   -0.131186
   1 C :   -0.140377
   2 C :   -0.141193
   3 C :   -0.232030
   4 C :   -0.116408
   5 C :   -0.134448
   6 P :    0.659261
   7 O :   -0.326686
   8 C :   -0.366750
   9 C :   -0.293154
  10 C :   -0.358311
  11 N :   -0.193915
  12 C :   -0.231314
  13 C :   -0.116766
  14 C :   -0.136098
  15 C :   -0.132105
  16 C :   -0.140389
  17 C :   -0.133599
  18 H :    0.149110
  19 H :    0.149004
  20 H :    0.147857
  21 H :    0.161906
  22 H :    0.150004
  23 H :    0.142450
  24 H :    0.159240
  25 H :    0.139825
  26 H :    0.143080
  27 H :    0.122800
  28 H :    0.129613
  29 H :    0.162583
  30 H :    0.152161
  31 H :    0.161540
  32 H :    0.149591
  33 H :    0.148773
  34 H :    0.148581
  35 H :    0.147349

  Mayer bond orders larger than 0.100000
B(  0-C ,  1-C ) :   1.4445 B(  0-C ,  5-C ) :   1.4385 B(  0-C , 18-H ) :   0.9456
B(  1-C ,  2-C ) :   1.5040 B(  1-C , 19-H ) :   0.9417 B(  2-C ,  3-C ) :   1.3266
B(  2-C , 20-H ) :   0.9204 B(  3-C ,  4-C ) :   1.4135 B(  3-C ,  6-P ) :   0.9285
B(  4-C ,  5-C ) :   1.4382 B(  4-C , 21-H ) :   0.9096 B(  5-C , 22-H ) :   0.9472
B(  6-P ,  7-O ) :   1.7840 B(  6-P ,  8-C ) :   0.9558 B(  6-P , 12-C ) :   0.9146
B(  8-C ,  9-C ) :   0.9000 B(  8-C , 23-H ) :   0.9426 B(  8-C , 24-H ) :   0.9282
B(  9-C , 10-C ) :   0.9041 B(  9-C , 25-H ) :   0.9834 B(  9-C , 26-H ) :   0.9603
B( 10-C , 11-N ) :   1.0143 B( 10-C , 27-H ) :   0.9834 B( 10-C , 28-H ) :   0.9765
B( 11-N , 29-H ) :   0.8921 B( 11-N , 30-H ) :   0.9349 B( 12-C , 13-C ) :   1.4078
B( 12-C , 17-C ) :   1.3512 B( 13-C , 14-C ) :   1.4289 B( 13-C , 31-H ) :   0.9069
B( 14-C , 15-C ) :   1.4423 B( 14-C , 32-H ) :   0.9469 B( 15-C , 16-C ) :   1.4349
B( 15-C , 33-H ) :   0.9459 B( 16-C , 17-C ) :   1.5152 B( 16-C , 34-H ) :   0.9445
B( 17-C , 35-H ) :   0.9062

Dispersion correction           -0.002347665
FINAL SINGLE POINT ENERGY     -1053.754622048998

DIPOLE MOMENT
-------------

Method             : SCF
Type of density    : Electron Density
Multiplicity       :   1
Irrep              :   0
Energy             : -1053.7522743843846911 Eh
Relativity type    :
Basis              : AO
                                X                 Y                 Z
Electronic contribution:     -6.595348878       5.590522783       3.289333112
Nuclear contribution   :      5.371197990      -5.862234928      -4.218464226
                        -----------------------------------------
Total Dipole Moment    :     -1.224150888      -0.271712144      -0.929131114
                        -----------------------------------------
Magnitude (a.u.)       :      1.560659320
Magnitude (Debye)      :      3.966880737

Rotational constants in cm-1:             0.015144             0.010588             0.007705
Rotational constants in MHz :           453.997814           317.435184           230.999852

                             ****ORCA TERMINATED NORMALLY****
TOTAL RUN TIME: 0 days 0 hours 1 minutes 39 seconds 979 msec
