                         Program Version 6.0.0  -   RELEASE   -
|  1> ! RI BP86 def2-SVP D3BJ TIGHTSCF Opt
|  2> %pal
|  3> nprocs 6
|  4> end
|  5>
|  6> * xyz 0 1
|  7> C      2.751471   -0.306212   -2.160390
|  8> C      2.511913   -1.108467   -0.905035
|  9> C      3.562409   -1.921220   -0.436806
| 10> C      3.417036   -2.691537    0.713652
| 11> C      2.219730   -2.660629    1.414135
| 12> C      1.168192   -1.857404    0.965856
| 13> C      1.285779   -1.063595   -0.192297
| 14> P     -0.099163   -0.010187   -0.775348
| 15> C      0.260629    1.656532   -0.096911
| 16> C      1.228108    1.847154    0.909532
| 17> C      1.505325    3.113834    1.429656
| 18> C      0.821940    4.224058    0.954722
| 19> C     -0.137102    4.068414   -0.042317
| 20> C     -0.426969    2.799675   -0.580487
| 21> C     -1.479168    2.718694   -1.659021
| 22> C     -1.562183   -0.594566    0.165798
| 23> C     -1.984508    0.052509    1.344024
| 24> C     -3.097270   -0.388767    2.064365
| 25> C     -3.817967   -1.489296    1.623223
| 26> C     -3.427736   -2.147432    0.460187
| 27> C     -2.310800   -1.714391   -0.280270
| 28> C     -1.956487   -2.482713   -1.529694
| 29> H      2.714149    0.766118   -1.944923
| 30> H      2.012880   -0.559819   -2.927489
| 31> H      3.738424   -0.515553   -2.587667
| 32> H      4.507953   -1.958767   -0.974181
| 33> H      4.236926   -3.314818    1.059911
| 34> H      2.096976   -3.260073    2.312342
| 35> H      0.253599   -1.863878    1.553310
| 36> H      1.786369    1.009376    1.319528
| 37> H      2.256800    3.226392    2.206697
| 38> H      1.034868    5.210493    1.357465
| 39> H     -0.662375    4.950322   -0.403653
| 40> H     -1.063922    2.278602   -2.571251
| 41> H     -1.854999    3.712164   -1.927788
| 42> H     -2.336728    2.131146   -1.316842
| 43> H     -1.450605    0.914977    1.734816
| 44> H     -3.395835    0.132007    2.970362
| 45> H     -4.683592   -1.835280    2.181418
| 46> H     -4.005400   -3.007939    0.128423
| 47> H     -1.959608   -1.822514   -2.402850
| 48> H     -0.976755   -2.958803   -1.423989
| 49> H     -2.682302   -3.278609   -1.730213
| 50> **                         ****END OF INPUT****
 Total Charge           Charge          ....    0
 Multiplicity           Mult            ....    1
 Number of Electrons    NEL             ....  162
Dispersion correction           -0.103521636
FINAL SINGLE POINT ENERGY     -1153.682014950565
Dispersion correction             ... done (  0.1 sec)
Dispersion correction           -0.105335541
FINAL SINGLE POINT ENERGY     -1153.691296797687
Dispersion correction             ... done (  0.1 sec)
Dispersion correction           -0.106736024
FINAL SINGLE POINT ENERGY     -1153.692962641630
Dispersion correction             ... done (  0.1 sec)
FINAL SINGLE POINT ENERGY     -1153.692593121168
FINAL SINGLE POINT ENERGY     -1153.693489505760
FINAL SINGLE POINT ENERGY     -1153.693579668949
FINAL SINGLE POINT ENERGY     -1153.693623511491
FINAL SINGLE POINT ENERGY     -1153.693696850857
FINAL SINGLE POINT ENERGY     -1153.693723864109
FINAL SINGLE POINT ENERGY     -1153.693735235506
Dispersion correction             ... done (  0.1 sec)
Dispersion correction           -0.106309917
FINAL SINGLE POINT ENERGY     -1153.693735578350
Dispersion correction             ... done (  0.1 sec)
Dispersion correction           -0.106312190
FINAL SINGLE POINT ENERGY     -1153.693737093599
Dispersion correction             ... done (  0.1 sec)
                    ***********************HURRAY********************

CARTESIAN COORDINATES (ANGSTROEM)
---------------------------------
  C      2.779052   -0.075496   -1.997045
  C      2.515315   -1.036376   -0.864695
  C      3.535964   -1.889990   -0.399971
  C      3.323273   -2.775823    0.667903
  C      2.071109   -2.815872    1.300557
  C      1.042464   -1.969987    0.858662
  C      1.246224   -1.082417   -0.218826
  P     -0.109983   -0.014773   -0.882747
  C      0.291685    1.629197   -0.136359
  C      1.363312    1.802036    0.764789
  C      1.685184    3.071829    1.267614
  C      0.928270    4.186644    0.875117
  C     -0.143931    4.021570   -0.015548
  C     -0.481288    2.756601   -0.537685
  C     -1.657525    2.604534   -1.469493
  C     -1.559271   -0.554638    0.131530
  C     -2.030248    0.200322    1.226374
  C     -3.171058   -0.197733    1.939649
  C     -3.851601   -1.366653    1.565053
  C     -3.384975   -2.126921    0.481381
  C     -2.245194   -1.742423   -0.253336
  C     -1.753435   -2.592194   -1.398662
  H      2.847155    0.969695   -1.625636
  H      1.948765   -0.088321   -2.734521
  H      3.725308   -0.312965   -2.520656
  H      4.520025   -1.858191   -0.894902
  H      4.137983   -3.435071    1.004960
  H      1.893124   -3.502460    2.142503
  H      0.062463   -1.991993    1.358917
  H      1.948419    0.924297    1.078494
  H      2.525101    3.187026    1.969903
  H      1.171427    5.188212    1.262049
  H     -0.738870    4.897193   -0.321587
  H     -1.404182    1.953505   -2.332820
  H     -2.003404    3.584804   -1.850710
  H     -2.513410    2.117167   -0.954597
  H     -1.489619    1.111527    1.523909
  H     -3.524310    0.404735    2.790649
  H     -4.748641   -1.689079    2.115807
  H     -3.919442   -3.044992    0.188369
  H     -1.488336   -1.966355   -2.276896
  H     -0.829563   -3.143990   -1.120823
  H     -2.513335   -3.336179   -1.706674

 Multiplicity           Mult            ....    1
 Number of Electrons    NEL             ....  162
 Basis Dimension        Dim             ....  417

ORBITAL ENERGIES
----------------

  NO   OCC          E(Eh)            E(eV)
   0   2.0000     -76.345697     -2077.4720
   1   2.0000      -9.928795      -270.1762
   2   2.0000      -9.928713      -270.1740
   3   2.0000      -9.928693      -270.1735
   4   2.0000      -9.922736      -270.0114
   5   2.0000      -9.922725      -270.0111
   6   2.0000      -9.922662      -270.0094
   7   2.0000      -9.919368      -269.9197
   8   2.0000      -9.919286      -269.9175
   9   2.0000      -9.919254      -269.9166
  10   2.0000      -9.918397      -269.8933
  11   2.0000      -9.918336      -269.8917
  12   2.0000      -9.918314      -269.8910
  13   2.0000      -9.917406      -269.8663
  14   2.0000      -9.917339      -269.8645
  15   2.0000      -9.917287      -269.8631
  16   2.0000      -9.917184      -269.8603
  17   2.0000      -9.917103      -269.8581
  18   2.0000      -9.917084      -269.8576
  19   2.0000      -9.912152      -269.7234
  20   2.0000      -9.912069      -269.7211
  21   2.0000      -9.912039      -269.7203
  22   2.0000      -6.313281      -171.7931
  23   2.0000      -4.534720      -123.3960
  24   2.0000      -4.534713      -123.3958
  25   2.0000      -4.531235      -123.3012
  26   2.0000      -0.779560       -21.2129
  27   2.0000      -0.770589       -20.9688
  28   2.0000      -0.770537       -20.9674
  29   2.0000      -0.700089       -19.0504
  30   2.0000      -0.694442       -18.8967
  31   2.0000      -0.694425       -18.8963
  32   2.0000      -0.684786       -18.6340
  33   2.0000      -0.663203       -18.0467
  34   2.0000      -0.663175       -18.0459
  35   2.0000      -0.615460       -16.7475
  36   2.0000      -0.610150       -16.6030
  37   2.0000      -0.610107       -16.6019
  38   2.0000      -0.580079       -15.7848
  39   2.0000      -0.541364       -14.7313
  40   2.0000      -0.541343       -14.7307
  41   2.0000      -0.526094       -14.3158
  42   2.0000      -0.516918       -14.0660
  43   2.0000      -0.516899       -14.0655
  44   2.0000      -0.489165       -13.3109
  45   2.0000      -0.452036       -12.3005
  46   2.0000      -0.451978       -12.2990
  47   2.0000      -0.434282       -11.8174
  48   2.0000      -0.417179       -11.3520
  49   2.0000      -0.417135       -11.3508
  50   2.0000      -0.416412       -11.3311
  51   2.0000      -0.394175       -10.7260
  52   2.0000      -0.394107       -10.7242
  53   2.0000      -0.385261       -10.4835
  54   2.0000      -0.378697       -10.3049
  55   2.0000      -0.378663       -10.3040
  56   2.0000      -0.371026       -10.0961
  57   2.0000      -0.363824        -9.9002
  58   2.0000      -0.363736        -9.8978
  59   2.0000      -0.362667        -9.8687
  60   2.0000      -0.355300        -9.6682
  61   2.0000      -0.355266        -9.6673
  62   2.0000      -0.342413        -9.3175
  63   2.0000      -0.336498        -9.1566
  64   2.0000      -0.336475        -9.1560
  65   2.0000      -0.327809        -8.9201
  66   2.0000      -0.316182        -8.6038
  67   2.0000      -0.316115        -8.6019
  68   2.0000      -0.316042        -8.5999
  69   2.0000      -0.302481        -8.2309
  70   2.0000      -0.302453        -8.2302
  71   2.0000      -0.301628        -8.2077
  72   2.0000      -0.282909        -7.6984
  73   2.0000      -0.282894        -7.6979
  74   2.0000      -0.246931        -6.7193
  75   2.0000      -0.230314        -6.2672
  76   2.0000      -0.230195        -6.2639
  77   2.0000      -0.223533        -6.0826
  78   2.0000      -0.221424        -6.0252
  79   2.0000      -0.221353        -6.0233
  80   2.0000      -0.189480        -5.1560
  81   0.0000      -0.056352        -1.5334
  82   0.0000      -0.056256        -1.5308
  83   0.0000      -0.046834        -1.2744
  84   0.0000      -0.038976        -1.0606
  85   0.0000      -0.036989        -1.0065

MULLIKEN ATOMIC CHARGES
-----------------------
   0 C :    0.029590
   1 C :   -0.062147
   2 C :   -0.035557
   3 C :    0.010275
   4 C :    0.003873
   5 C :   -0.001455
   6 C :   -0.156711
   7 P :    0.210533
   8 C :   -0.157755
   9 C :   -0.001810
  10 C :    0.003920
  11 C :    0.010204
  12 C :   -0.035334
  13 C :   -0.061373
  14 C :    0.029025
  15 C :   -0.157817
  16 C :   -0.001109
  17 C :    0.003823
  18 C :    0.010232
  19 C :   -0.035500
  20 C :   -0.061599
  21 C :    0.029630
  22 H :    0.052668
  23 H :    0.058210
  24 H :    0.024707
  25 H :   -0.013886
  26 H :    0.000186
  27 H :   -0.000573
  28 H :    0.020778
  29 H :    0.021020
  30 H :   -0.000547
  31 H :    0.000212
  32 H :   -0.013898
  33 H :    0.058148
  34 H :    0.024830
  35 H :    0.052887
  36 H :    0.021104
  37 H :   -0.000567
  38 H :    0.000227
  39 H :   -0.013853
  40 H :    0.058182
  41 H :    0.052444
  42 H :    0.024782
Sum of atomic charges:   -0.0000000

LOEWDIN ATOMIC CHARGES
----------------------
   0 C :   -0.072696
   1 C :   -0.030503
   2 C :   -0.036214
   3 C :   -0.030022
   4 C :   -0.038416
   5 C :   -0.036002
   6 C :   -0.173331
   7 P :    0.515453
   8 C :   -0.173279
   9 C :   -0.036139
  10 C :   -0.038438
  11 C :   -0.030036
  12 C :   -0.036154
  13 C :   -0.030420
  14 C :   -0.072621
  15 C :   -0.173311
  16 C :   -0.035893
  17 C :   -0.038423
  18 C :   -0.029925
  19 C :   -0.036161
  20 C :   -0.030413
  21 C :   -0.072591
  22 H :    0.044236
  23 H :    0.037344
  24 H :    0.033688
  25 H :    0.029510
  26 H :    0.032286
  27 H :    0.032252
  28 H :    0.035866
  29 H :    0.035922
  30 H :    0.032259
  31 H :    0.032297
  32 H :    0.029507
  33 H :    0.037121
  34 H :    0.033720
  35 H :    0.044360
  36 H :    0.035977
  37 H :    0.032264
  38 H :    0.032312
  39 H :    0.029512
  40 H :    0.037103
  41 H :    0.044272
  42 H :    0.033728

  Mayer bond orders larger than 0.100000
B(  0-C ,  1-C ) :   1.1116 B(  0-C , 22-H ) :   0.9324 B(  0-C , 23-H ) :   0.9183
B(  0-C , 24-H ) :   0.9449 B(  1-C ,  2-C ) :   1.4018 B(  1-C ,  6-C ) :   1.3728
B(  2-C ,  3-C ) :   1.3659 B(  2-C , 25-H ) :   0.9714 B(  3-C ,  4-C ) :   1.3660
B(  3-C , 26-H ) :   0.9739 B(  4-C ,  5-C ) :   1.3759 B(  4-C , 27-H ) :   0.9755
B(  5-C ,  6-C ) :   1.3800 B(  5-C , 28-H ) :   0.9609 B(  6-C ,  7-P ) :   0.9468
B(  7-P ,  8-C ) :   0.9464 B(  7-P , 15-C ) :   0.9470 B(  8-C ,  9-C ) :   1.3794
B(  8-C , 13-C ) :   1.3733 B(  9-C , 10-C ) :   1.3760 B(  9-C , 29-H ) :   0.9608
B( 10-C , 11-C ) :   1.3657 B( 10-C , 30-H ) :   0.9756 B( 11-C , 12-C ) :   1.3661
B( 11-C , 31-H ) :   0.9740 B( 12-C , 13-C ) :   1.4015 B( 12-C , 32-H ) :   0.9714
B( 13-C , 14-C ) :   1.1113 B( 14-C , 33-H ) :   0.9184 B( 14-C , 34-H ) :   0.9448
B( 14-C , 35-H ) :   0.9326 B( 15-C , 16-C ) :   1.3787 B( 15-C , 20-C ) :   1.3737
B( 16-C , 17-C ) :   1.3762 B( 16-C , 36-H ) :   0.9609 B( 17-C , 18-C ) :   1.3656
B( 17-C , 37-H ) :   0.9756 B( 18-C , 19-C ) :   1.3664 B( 18-C , 38-H ) :   0.9739
B( 19-C , 20-C ) :   1.4015 B( 19-C , 39-H ) :   0.9714 B( 20-C , 21-C ) :   1.1110
B( 21-C , 40-H ) :   0.9187 B( 21-C , 41-H ) :   0.9327 B( 21-C , 42-H ) :   0.9450

Dispersion correction           -0.106311893
FINAL SINGLE POINT ENERGY     -1153.693737242222

DIPOLE MOMENT
-------------

Method             : SCF
Type of density    : Electron Density
Multiplicity       :   1
Irrep              :   0
Energy             : -1153.5874253495849189 Eh
Relativity type    :
Basis              : AO
                                X                 Y                 Z
Electronic contribution:      0.420590582       0.022359652       3.012670518
Nuclear contribution   :     -0.409317339      -0.020356268      -2.876230201
                        -----------------------------------------
Total Dipole Moment    :      0.011273243       0.002003384       0.136440317
                        -----------------------------------------
Magnitude (a.u.)       :      0.136919902
Magnitude (Debye)      :      0.348022734

Rotational constants in cm-1:             0.009519             0.009502             0.005929
Rotational constants in MHz :           285.360231           284.874082           177.752827

                             ****ORCA TERMINATED NORMALLY****
TOTAL RUN TIME: 0 days 0 hours 4 minutes 44 seconds 871 msec
