                         Program Version 6.0.0  -   RELEASE   -
|  1> ! RI BP86 def2-SVP D3BJ TIGHTSCF Opt
|  2> %pal
|  3> nprocs 6
|  4> end
|  5>
|  6> * xyz 0 1
|  7> C      4.053355   -1.258086    0.631130
|  8> C      2.798663   -1.771739    1.329352
|  9> C      1.589885   -0.886120    1.035945
| 10> C      1.347177   -0.732545   -0.468799
| 11> C      2.617511   -0.213714   -1.162214
| 12> C      3.829969   -1.091973   -0.868027
| 13> P     -0.110672    0.286398   -0.914273
| 14> O     -0.306000    0.215689   -2.412152
| 15> C     -1.549358   -0.507829   -0.094991
| 16> C     -1.738881   -1.968202   -0.531510
| 17> C     -2.967398   -2.609540    0.107349
| 18> C     -4.230129   -1.799304   -0.158864
| 19> C     -4.061269   -0.350145    0.280817
| 20> C     -2.836460    0.291437   -0.362547
| 21> C      0.112010    1.933190   -0.280385
| 22> C     -0.053792    2.247551    1.074704
| 23> C      0.135289    3.553841    1.530771
| 24> C      0.489935    4.561671    0.636841
| 25> C      0.653851    4.265363   -0.713732
| 26> C      0.464895    2.959938   -1.168013
| 27> H      4.883959   -1.950906    0.806576
| 28> H      4.343825   -0.293658    1.065760
| 29> H      2.589109   -2.796641    0.999234
| 30> H      2.970481   -1.813504    2.410845
| 31> H      0.707526   -1.315369    1.520465
| 32> H      1.751768    0.096621    1.491121
| 33> H      1.140846   -1.728319   -0.880708
| 34> H      2.823413    0.812603   -0.835506
| 35> H      2.455898   -0.167251   -2.245183
| 36> H      4.722964   -0.653582   -1.327553
| 37> H      3.685757   -2.077710   -1.327195
| 38> H     -1.359957   -0.495887    0.984319
| 39> H     -1.824864   -2.017012   -1.623867
| 40> H     -0.856586   -2.557912   -0.263745
| 41> H     -3.094374   -3.627024   -0.279303
| 42> H     -2.810606   -2.696854    1.189591
| 43> H     -4.466808   -1.831840   -1.229478
| 44> H     -5.077358   -2.250094    0.369969
| 45> H     -3.964437   -0.307130    1.372629
| 46> H     -4.958095    0.221639    0.017020
| 47> H     -2.728377    1.314122    0.013966
| 48> H     -2.993780    0.378157   -1.444878
| 49> H     -0.332686    1.480111    1.791421
| 50> H      0.004060    3.786848    2.584545
| 51> H      0.635341    5.578733    0.991511
| 52> H      0.925666    5.049498   -1.415748
| 53> H      0.588732    2.736483   -2.227212
| 54> **                         ****END OF INPUT****
 Total Charge           Charge          ....    0
 Multiplicity           Mult            ....    1
 Number of Electrons    NEL             ....  158
Dispersion correction           -0.101334039
FINAL SINGLE POINT ENERGY     -1118.250142932550
Dispersion correction             ... done (  0.1 sec)
Dispersion correction           -0.100985065
FINAL SINGLE POINT ENERGY     -1118.259502930053
Dispersion correction             ... done (  0.1 sec)
Dispersion correction           -0.100932430
FINAL SINGLE POINT ENERGY     -1118.261209055525
Dispersion correction             ... done (  0.1 sec)
FINAL SINGLE POINT ENERGY     -1118.261623246160
FINAL SINGLE POINT ENERGY     -1118.261686600129
FINAL SINGLE POINT ENERGY     -1118.261707682579
Dispersion correction             ... done (  0.1 sec)
Dispersion correction           -0.100902642
FINAL SINGLE POINT ENERGY     -1118.261713997460
Dispersion correction             ... done (  0.1 sec)
Dispersion correction           -0.100900962
FINAL SINGLE POINT ENERGY     -1118.261716183840
Dispersion correction             ... done (  0.1 sec)
                    ***********************HURRAY********************

CARTESIAN COORDINATES (ANGSTROEM)
---------------------------------
  C      4.104382   -1.191595    0.626780
  C      2.871753   -1.784993    1.326202
  C      1.612209   -0.943733    1.055747
  C      1.373372   -0.779752   -0.454543
  C      2.608097   -0.185608   -1.161661
  C      3.864738   -1.022591   -0.881614
  P     -0.124450    0.197216   -0.942744
  O     -0.301960    0.239925   -2.455449
  C     -1.580806   -0.517437   -0.052359
  C     -1.760484   -1.999624   -0.438251
  C     -3.048773   -2.589678    0.156497
  C     -4.281393   -1.758601   -0.227950
  C     -4.107909   -0.290057    0.185827
  C     -2.829293    0.314767   -0.411941
  C      0.108832    1.878222   -0.240086
  C      0.044081    2.181129    1.136371
  C      0.247488    3.498769    1.577190
  C      0.514772    4.518848    0.647483
  C      0.568253    4.222746   -0.725373
  C      0.361403    2.907299   -1.169501
  H      4.996298   -1.827196    0.810878
  H      4.330837   -0.196705    1.073545
  H      2.702237   -2.821168    0.955226
  H      3.045887   -1.867920    2.420038
  H      0.730412   -1.406037    1.548346
  H      1.745198    0.061603    1.512465
  H      1.171547   -1.781772   -0.899869
  H      2.765856    0.853313   -0.793108
  H      2.404801   -0.110074   -2.248861
  H      4.748242   -0.554919   -1.365445
  H      3.747198   -2.026397   -1.349436
  H     -1.391122   -0.442747    1.042965
  H     -1.790063   -2.065705   -1.548353
  H     -0.882829   -2.594786   -0.108596
  H     -3.168689   -3.643204   -0.173991
  H     -2.958337   -2.617747    1.266490
  H     -4.426179   -1.811396   -1.330643
  H     -5.197089   -2.187885    0.230986
  H     -4.060103   -0.225641    1.297014
  H     -4.989531    0.309816   -0.124319
  H     -2.697091    1.363169   -0.071622
  H     -2.906347    0.352599   -1.520562
  H     -0.177620    1.393122    1.872473
  H      0.193504    3.731847    2.651849
  H      0.674514    5.550972    0.995825
  H      0.766735    5.023473   -1.454539
  H      0.377417    2.646134   -2.239386

 Multiplicity           Mult            ....    1
 Number of Electrons    NEL             ....  158
 Basis Dimension        Dim             ....  419

ORBITAL ENERGIES
----------------

  NO   OCC          E(Eh)            E(eV)
   0   2.0000     -76.401856     -2079.0002
   1   2.0000     -18.709020      -509.0983
   2   2.0000      -9.933116      -270.2938
   3   2.0000      -9.929183      -270.1868
   4   2.0000      -9.929012      -270.1821
   5   2.0000      -9.926415      -270.1115
   6   2.0000      -9.924966      -270.0720
   7   2.0000      -9.924477      -270.0588
   8   2.0000      -9.924238      -270.0522
   9   2.0000      -9.922676      -270.0097
  10   2.0000      -9.921931      -269.9895
  11   2.0000      -9.917636      -269.8726
  12   2.0000      -9.916342      -269.8374
  13   2.0000      -9.913910      -269.7712
  14   2.0000      -9.912586      -269.7352
  15   2.0000      -9.912357      -269.7290
  16   2.0000      -9.911946      -269.7178
  17   2.0000      -9.911729      -269.7118
  18   2.0000      -9.911704      -269.7112
  19   2.0000      -9.910554      -269.6799
  20   2.0000      -6.360609      -173.0810
  21   2.0000      -4.582136      -124.6863
  22   2.0000      -4.581550      -124.6703
  23   2.0000      -4.581433      -124.6671
  24   2.0000      -0.842003       -22.9121
  25   2.0000      -0.777210       -21.1490
  26   2.0000      -0.757672       -20.6173
  27   2.0000      -0.753883       -20.5142
  28   2.0000      -0.690720       -18.7954
  29   2.0000      -0.675794       -18.3893
  30   2.0000      -0.672562       -18.3013
  31   2.0000      -0.669509       -18.2183
  32   2.0000      -0.667939       -18.1756
  33   2.0000      -0.666052       -18.1242
  34   2.0000      -0.577907       -15.7256
  35   2.0000      -0.552498       -15.0342
  36   2.0000      -0.550085       -14.9686
  37   2.0000      -0.544832       -14.8256
  38   2.0000      -0.538872       -14.6635
  39   2.0000      -0.538073       -14.6417
  40   2.0000      -0.498622       -13.5682
  41   2.0000      -0.497643       -13.5416
  42   2.0000      -0.485465       -13.2102
  43   2.0000      -0.457924       -12.4608
  44   2.0000      -0.432955       -11.7813
  45   2.0000      -0.430133       -11.7045
  46   2.0000      -0.411853       -11.2071
  47   2.0000      -0.405612       -11.0373
  48   2.0000      -0.402645       -10.9565
  49   2.0000      -0.394974       -10.7478
  50   2.0000      -0.393727       -10.7139
  51   2.0000      -0.391456       -10.6521
  52   2.0000      -0.389080       -10.5874
  53   2.0000      -0.380368       -10.3504
  54   2.0000      -0.379800       -10.3349
  55   2.0000      -0.361443        -9.8354
  56   2.0000      -0.352090        -9.5809
  57   2.0000      -0.346700        -9.4342
  58   2.0000      -0.341844        -9.3021
  59   2.0000      -0.341222        -9.2851
  60   2.0000      -0.334926        -9.1138
  61   2.0000      -0.325583        -8.8596
  62   2.0000      -0.321721        -8.7545
  63   2.0000      -0.315699        -8.5906
  64   2.0000      -0.310761        -8.4562
  65   2.0000      -0.304378        -8.2826
  66   2.0000      -0.302172        -8.2225
  67   2.0000      -0.297396        -8.0926
  68   2.0000      -0.291523        -7.9327
  69   2.0000      -0.280822        -7.6415
  70   2.0000      -0.277974        -7.5640
  71   2.0000      -0.276534        -7.5249
  72   2.0000      -0.270050        -7.3484
  73   2.0000      -0.266709        -7.2575
  74   2.0000      -0.263711        -7.1759
  75   2.0000      -0.239199        -6.5089
  76   2.0000      -0.237369        -6.4591
  77   2.0000      -0.210235        -5.7208
  78   2.0000      -0.204759        -5.5718
  79   0.0000      -0.061318        -1.6685
  80   0.0000      -0.050977        -1.3872
  81   0.0000       0.015337         0.4173
  82   0.0000       0.035024         0.9531
  83   0.0000       0.038659         1.0520

MULLIKEN ATOMIC CHARGES
-----------------------
   0 C :   -0.032386
   1 C :    0.000570
   2 C :    0.007310
   3 C :   -0.240867
   4 C :    0.010724
   5 C :    0.007515
   6 P :    0.551154
   7 O :   -0.470739
   8 C :   -0.238486
   9 C :    0.003759
  10 C :    0.005556
  11 C :   -0.029451
  12 C :    0.009058
  13 C :    0.016718
  14 C :   -0.132115
  15 C :   -0.003536
  16 C :   -0.004867
  17 C :    0.008356
  18 C :    0.002628
  19 C :    0.008117
  20 H :    0.020219
  21 H :    0.012449
  22 H :    0.008978
  23 H :    0.019248
  24 H :    0.020278
  25 H :    0.020661
  26 H :    0.044168
  27 H :    0.021668
  28 H :    0.039852
  29 H :    0.021210
  30 H :    0.010156
  31 H :    0.025842
  32 H :    0.036964
  33 H :    0.021615
  34 H :    0.020738
  35 H :    0.004589
  36 H :    0.017025
  37 H :    0.018907
  38 H :    0.004004
  39 H :    0.021409
  40 H :    0.027945
  41 H :    0.034958
  42 H :    0.003436
  43 H :    0.003797
  44 H :    0.008120
  45 H :    0.009532
  46 H :    0.023213
Sum of atomic charges:   -0.0000000

LOEWDIN ATOMIC CHARGES
----------------------
   0 C :   -0.048110
   1 C :   -0.043392
   2 C :   -0.052858
   3 C :   -0.176380
   4 C :   -0.048330
   5 C :   -0.044545
   6 P :    0.891362
   7 O :   -0.503913
   8 C :   -0.177397
   9 C :   -0.050185
  10 C :   -0.044453
  11 C :   -0.047470
  12 C :   -0.044904
  13 C :   -0.049197
  14 C :   -0.184384
  15 C :   -0.038046
  16 C :   -0.031833
  17 C :   -0.023295
  18 C :   -0.027803
  19 C :   -0.017934
  20 H :    0.027587
  21 H :    0.024717
  22 H :    0.024183
  23 H :    0.027440
  24 H :    0.023569
  25 H :    0.026484
  26 H :    0.031955
  27 H :    0.026429
  28 H :    0.033481
  29 H :    0.029145
  30 H :    0.024787
  31 H :    0.021058
  32 H :    0.031686
  33 H :    0.024381
  34 H :    0.028739
  35 H :    0.022381
  36 H :    0.027027
  37 H :    0.027073
  38 H :    0.021975
  39 H :    0.029262
  40 H :    0.029606
  41 H :    0.031585
  42 H :    0.027371
  43 H :    0.033607
  44 H :    0.034280
  45 H :    0.035259
  46 H :    0.038001

  Mayer bond orders larger than 0.100000
B(  0-C ,  1-C ) :   1.0998 B(  0-C ,  5-C ) :   1.0957 B(  0-C , 20-H ) :   0.9318
B(  0-C , 21-H ) :   0.9287 B(  1-C ,  2-C ) :   1.0970 B(  1-C , 22-H ) :   0.9252
B(  1-C , 23-H ) :   0.9307 B(  2-C ,  3-C ) :   1.0158 B(  2-C , 24-H ) :   0.9247
B(  2-C , 25-H ) :   0.9153 B(  3-C ,  4-C ) :   1.0427 B(  3-C ,  6-P ) :   0.8938
B(  3-C , 26-H ) :   0.8835 B(  4-C ,  5-C ) :   1.0991 B(  4-C , 27-H ) :   0.9264
B(  4-C , 28-H ) :   0.9190 B(  5-C , 29-H ) :   0.9305 B(  5-C , 30-H ) :   0.9263
B(  6-P ,  7-O ) :   1.8451 B(  6-P ,  8-C ) :   0.8968 B(  6-P , 14-C ) :   0.8689
B(  8-C ,  9-C ) :   1.0400 B(  8-C , 13-C ) :   1.0378 B(  8-C , 31-H ) :   0.8755
B(  9-C , 10-C ) :   1.1013 B(  9-C , 32-H ) :   0.9205 B(  9-C , 33-H ) :   0.9222
B( 10-C , 11-C ) :   1.1000 B( 10-C , 34-H ) :   0.9300 B( 10-C , 35-H ) :   0.9242
B( 11-C , 12-C ) :   1.0979 B( 11-C , 36-H ) :   0.9288 B( 11-C , 37-H ) :   0.9319
B( 12-C , 13-C ) :   1.0979 B( 12-C , 38-H ) :   0.9248 B( 12-C , 39-H ) :   0.9300
B( 13-C , 40-H ) :   0.9258 B( 13-C , 41-H ) :   0.9182 B( 14-C , 15-C ) :   1.3436
B( 14-C , 19-C ) :   1.3873 B( 15-C , 16-C ) :   1.3983 B( 15-C , 42-H ) :   0.9648
B( 16-C , 17-C ) :   1.3791 B( 16-C , 43-H ) :   0.9747 B( 17-C , 18-C ) :   1.3800
B( 17-C , 44-H ) :   0.9759 B( 18-C , 19-C ) :   1.3632 B( 18-C , 45-H ) :   0.9788
B( 19-C , 46-H ) :   0.9686

Dispersion correction           -0.100899698
FINAL SINGLE POINT ENERGY     -1118.261716504109

DIPOLE MOMENT
-------------

Method             : SCF
Type of density    : Electron Density
Multiplicity       :   1
Irrep              :   0
Energy             : -1118.1608168062759887 Eh
Relativity type    :
Basis              : AO
                                X                 Y                 Z
Electronic contribution:      0.237524307      13.423183177      -6.333333213
Nuclear contribution   :     -0.048718295     -13.425612698       7.703247202
                        -----------------------------------------
Total Dipole Moment    :      0.188806012      -0.002429521       1.369913990
                        -----------------------------------------
Magnitude (a.u.)       :      1.382865848
Magnitude (Debye)      :      3.514965646

Rotational constants in cm-1:             0.011535             0.008743             0.006093
Rotational constants in MHz :           345.819194           262.097521           182.671054

                             ****ORCA TERMINATED NORMALLY****
TOTAL RUN TIME: 0 days 0 hours 3 minutes 15 seconds 956 msec
