                         Program Version 6.0.0  -   RELEASE   -
|  1> ! RI BP86 def2-SVP D3BJ TIGHTSCF Opt
|  2> %pal
|  3> nprocs 6
|  4> end
|  5>
|  6> * xyz 0 1
|  7> C      5.450703   -1.106103    1.825917
|  8> C      4.914783   -1.390827    0.631962
|  9> C      3.526433   -1.102619    0.248049
| 10> C      3.243500   -0.803808   -1.089377
| 11> C      1.931959   -0.551049   -1.501181
| 12> C      0.870078   -0.600460   -0.586981
| 13> C      1.151000   -0.919570    0.747530
| 14> C      2.464878   -1.171998    1.158110
| 15> P     -0.797860   -0.244856   -1.175824
| 16> O     -1.002964   -0.794002   -2.578575
| 17> C     -1.968918   -0.982112   -0.018858
| 18> C     -2.532156   -0.265919    1.047414
| 19> C     -3.422912   -0.886385    1.925788
| 20> C     -3.761139   -2.226582    1.748584
| 21> C     -3.212402   -2.949012    0.691706
| 22> C     -2.322730   -2.330396   -0.186716
| 23> C     -1.031123    1.543601   -1.145014
| 24> C     -2.020421    2.107546   -1.966232
| 25> C     -2.247893    3.483804   -1.966419
| 26> C     -1.487628    4.314167   -1.146336
| 27> C     -0.499305    3.769712   -0.328581
| 28> C     -0.270745    2.392139   -0.327062
| 29> H      4.890609   -0.622371    2.618962
| 30> H      6.490469   -1.343402    2.029551
| 31> H      5.537655   -1.851601   -0.131855
| 32> H      4.042609   -0.758908   -1.826354
| 33> H      1.732477   -0.319325   -2.546825
| 34> H      0.354697   -0.983766    1.484771
| 35> H      2.644796   -1.438060    2.197118
| 36> H     -2.287424    0.781243    1.205910
| 37> H     -3.857159   -0.322115    2.747545
| 38> H     -4.457248   -2.707099    2.431346
| 39> H     -3.479763   -3.992819    0.547586
| 40> H     -1.902521   -2.898312   -1.015943
| 41> H     -2.612958    1.463788   -2.615228
| 42> H     -3.015100    3.906919   -2.609954
| 43> H     -1.661949    5.387121   -1.148721
| 44> H      0.097573    4.420054    0.306296
| 45> H      0.508097    1.993380    0.317890
| 46> **                         ****END OF INPUT****
 Total Charge           Charge          ....    0
 Multiplicity           Mult            ....    1
 Number of Electrons    NEL             ....  160
Dispersion correction           -0.093208068
FINAL SINGLE POINT ENERGY     -1188.349459914491
Dispersion correction             ... done (  0.1 sec)
Dispersion correction           -0.093097255
FINAL SINGLE POINT ENERGY     -1188.356120998672
Dispersion correction             ... done (  0.1 sec)
Dispersion correction           -0.093173985
FINAL SINGLE POINT ENERGY     -1188.357728662986
Dispersion correction             ... done (  0.1 sec)
FINAL SINGLE POINT ENERGY     -1188.358357560628
FINAL SINGLE POINT ENERGY     -1188.358596273793
FINAL SINGLE POINT ENERGY     -1188.358738943142
FINAL SINGLE POINT ENERGY     -1188.358818390654
FINAL SINGLE POINT ENERGY     -1188.358858698584
FINAL SINGLE POINT ENERGY     -1188.358872027784
Dispersion correction             ... done (  0.1 sec)
Dispersion correction           -0.092954325
FINAL SINGLE POINT ENERGY     -1188.358875372661
Dispersion correction             ... done (  0.1 sec)
Dispersion correction           -0.092960075
FINAL SINGLE POINT ENERGY     -1188.358876211542
Dispersion correction             ... done (  0.1 sec)
                    ***********************HURRAY********************

CARTESIAN COORDINATES (ANGSTROEM)
---------------------------------
  C      5.438904   -1.328938    1.884484
  C      4.944180   -1.233360    0.631297
  C      3.542108   -1.011858    0.240840
  C      3.215093   -0.936898   -1.134929
  C      1.898071   -0.725923   -1.560109
  C      0.868330   -0.576778   -0.610805
  C      1.173279   -0.668921    0.764333
  C      2.491282   -0.878783    1.182056
  P     -0.814157   -0.272841   -1.263388
  O     -1.022923   -0.831946   -2.660759
  C     -1.955152   -0.986834   -0.020302
  C     -2.357105   -0.308786    1.147877
  C     -3.217299   -0.939637    2.061592
  C     -3.682977   -2.240931    1.806506
  C     -3.295896   -2.910912    0.632487
  C     -2.435704   -2.285864   -0.282918
  C     -1.057584    1.540666   -1.168253
  C     -1.919982    2.108307   -2.128083
  C     -2.175921    3.487735   -2.108767
  C     -1.568976    4.303644   -1.137812
  C     -0.695989    3.741484   -0.190584
  C     -0.434729    2.361570   -0.206633
  H      4.802675   -1.245767    2.780049
  H      6.512607   -1.496037    2.056758
  H      5.647204   -1.327214   -0.215384
  H      4.017243   -1.053043   -1.881196
  H      1.643875   -0.687032   -2.630597
  H      0.369483   -0.594518    1.513117
  H      2.708436   -0.951024    2.258198
  H     -2.012772    0.720146    1.334784
  H     -3.533685   -0.408909    2.972720
  H     -4.359986   -2.732138    2.522302
  H     -3.672309   -3.924793    0.426655
  H     -2.135305   -2.783140   -1.218243
  H     -2.368247    1.453173   -2.891155
  H     -2.848439    3.931116   -2.859188
  H     -1.769319    5.386098   -1.125480
  H     -0.207574    4.382807    0.559133
  H      0.269259    1.926078    0.519393

 Multiplicity           Mult            ....    1
 Number of Electrons    NEL             ....  160
 Basis Dimension        Dim             ....  397

ORBITAL ENERGIES
----------------

  NO   OCC          E(Eh)            E(eV)
   0   2.0000     -76.416026     -2079.3858
   1   2.0000     -18.717949      -509.3413
   2   2.0000      -9.938039      -270.4278
   3   2.0000      -9.934140      -270.3217
   4   2.0000      -9.933542      -270.3054
   5   2.0000      -9.933465      -270.3033
   6   2.0000      -9.931190      -270.2414
   7   2.0000      -9.930948      -270.2348
   8   2.0000      -9.930889      -270.2332
   9   2.0000      -9.930474      -270.2219
  10   2.0000      -9.930417      -270.2204
  11   2.0000      -9.930245      -270.2157
  12   2.0000      -9.929101      -270.1846
  13   2.0000      -9.928817      -270.1768
  14   2.0000      -9.928732      -270.1745
  15   2.0000      -9.928602      -270.1710
  16   2.0000      -9.928597      -270.1709
  17   2.0000      -9.928547      -270.1695
  18   2.0000      -9.928507      -270.1684
  19   2.0000      -9.928478      -270.1676
  20   2.0000      -9.928365      -270.1645
  21   2.0000      -9.924241      -270.0523
  22   2.0000      -6.374128      -173.4489
  23   2.0000      -4.595333      -125.0454
  24   2.0000      -4.595330      -125.0453
  25   2.0000      -4.595128      -125.0398
  26   2.0000      -0.851834       -23.1796
  27   2.0000      -0.785882       -21.3849
  28   2.0000      -0.780481       -21.2380
  29   2.0000      -0.778404       -21.1815
  30   2.0000      -0.721503       -19.6331
  31   2.0000      -0.692551       -18.8453
  32   2.0000      -0.679613       -18.4932
  33   2.0000      -0.678349       -18.4588
  34   2.0000      -0.677617       -18.4389
  35   2.0000      -0.675139       -18.3715
  36   2.0000      -0.659465       -17.9450
  37   2.0000      -0.590563       -16.0700
  38   2.0000      -0.560470       -15.2512
  39   2.0000      -0.552972       -15.0471
  40   2.0000      -0.551617       -15.0103
  41   2.0000      -0.548434       -14.9236
  42   2.0000      -0.541244       -14.7280
  43   2.0000      -0.509185       -13.8556
  44   2.0000      -0.504066       -13.7163
  45   2.0000      -0.474157       -12.9025
  46   2.0000      -0.467652       -12.7255
  47   2.0000      -0.448523       -12.2049
  48   2.0000      -0.431233       -11.7344
  49   2.0000      -0.416483       -11.3331
  50   2.0000      -0.416038       -11.3210
  51   2.0000      -0.407477       -11.0880
  52   2.0000      -0.406208       -11.0535
  53   2.0000      -0.401991       -10.9387
  54   2.0000      -0.393084       -10.6963
  55   2.0000      -0.383818       -10.4442
  56   2.0000      -0.382916       -10.4197
  57   2.0000      -0.382604       -10.4112
  58   2.0000      -0.380274       -10.3478
  59   2.0000      -0.375945       -10.2300
  60   2.0000      -0.348860        -9.4930
  61   2.0000      -0.346399        -9.4260
  62   2.0000      -0.340799        -9.2736
  63   2.0000      -0.337905        -9.1949
  64   2.0000      -0.327388        -8.9087
  65   2.0000      -0.316398        -8.6096
  66   2.0000      -0.313510        -8.5310
  67   2.0000      -0.311022        -8.4634
  68   2.0000      -0.307162        -8.3583
  69   2.0000      -0.305366        -8.3094
  70   2.0000      -0.299290        -8.1441
  71   2.0000      -0.281295        -7.6544
  72   2.0000      -0.248309        -6.7568
  73   2.0000      -0.242357        -6.5949
  74   2.0000      -0.242084        -6.5874
  75   2.0000      -0.240006        -6.5309
  76   2.0000      -0.238342        -6.4856
  77   2.0000      -0.221346        -6.0231
  78   2.0000      -0.218606        -5.9486
  79   2.0000      -0.213853        -5.8192
  80   0.0000      -0.087798        -2.3891
  81   0.0000      -0.068384        -1.8608
  82   0.0000      -0.060743        -1.6529
  83   0.0000      -0.056127        -1.5273
  84   0.0000      -0.050712        -1.3799

MULLIKEN ATOMIC CHARGES
-----------------------
   0 C :   -0.058124
   1 C :   -0.020059
   2 C :    0.094334
   3 C :   -0.039549
   4 C :    0.017544
   5 C :   -0.124176
   6 C :   -0.000680
   7 C :   -0.027050
   8 P :    0.633450
   9 O :   -0.454824
  10 C :   -0.129611
  11 C :   -0.007030
  12 C :   -0.000358
  13 C :    0.009533
  14 C :    0.001279
  15 C :    0.012788
  16 C :   -0.128660
  17 C :    0.012266
  18 C :    0.001218
  19 C :    0.009487
  20 C :   -0.000424
  21 C :   -0.007513
  22 H :    0.036361
  23 H :    0.045481
  24 H :    0.005141
  25 H :   -0.000730
  26 H :    0.020489
  27 H :    0.001955
  28 H :   -0.011657
  29 H :    0.005493
  30 H :    0.005714
  31 H :    0.009529
  32 H :    0.011432
  33 H :    0.022344
  34 H :    0.022389
  35 H :    0.011384
  36 H :    0.009550
  37 H :    0.005893
  38 H :    0.005393
Sum of atomic charges:   -0.0000000

LOEWDIN ATOMIC CHARGES
----------------------
   0 C :   -0.049196
   1 C :   -0.028778
   2 C :   -0.022455
   3 C :   -0.018924
   4 C :   -0.013338
   5 C :   -0.183725
   6 C :   -0.033493
   7 C :   -0.016915
   8 P :    0.887177
   9 O :   -0.489155
  10 C :   -0.182623
  11 C :   -0.035859
  12 C :   -0.029799
  13 C :   -0.021087
  14 C :   -0.025747
  15 C :   -0.014389
  16 C :   -0.182606
  17 C :   -0.014508
  18 C :   -0.025787
  19 C :   -0.021080
  20 C :   -0.029741
  21 C :   -0.035795
  22 H :    0.026566
  23 H :    0.034291
  24 H :    0.034765
  25 H :    0.033961
  26 H :    0.039730
  27 H :    0.032949
  28 H :    0.031844
  29 H :    0.032305
  30 H :    0.034550
  31 H :    0.034971
  32 H :    0.036121
  33 H :    0.038878
  34 H :    0.038885
  35 H :    0.036093
  36 H :    0.034980
  37 H :    0.034629
  38 H :    0.032303

  Mayer bond orders larger than 0.100000
B(  0-C ,  1-C ) :   1.9050 B(  0-C , 22-H ) :   0.9376 B(  0-C , 23-H ) :   0.9399
B(  1-C ,  2-C ) :   1.1016 B(  1-C , 24-H ) :   0.9521 B(  2-C ,  3-C ) :   1.3253
B(  2-C ,  7-C ) :   1.3279 B(  3-C ,  4-C ) :   1.3631 B(  3-C , 25-H ) :   0.9810
B(  4-C ,  5-C ) :   1.3721 B(  4-C , 26-H ) :   0.9715 B(  5-C ,  6-C ) :   1.3344
B(  5-C ,  8-P ) :   0.8807 B(  6-C ,  7-C ) :   1.4134 B(  6-C , 27-H ) :   0.9616
B(  7-C , 28-H ) :   0.9716 B(  8-P ,  9-O ) :   1.8784 B(  8-P , 10-C ) :   0.8782
B(  8-P , 16-C ) :   0.8781 B( 10-C , 11-C ) :   1.3654 B( 10-C , 15-C ) :   1.3795
B( 11-C , 12-C ) :   1.3894 B( 11-C , 29-H ) :   0.9643 B( 12-C , 13-C ) :   1.3814
B( 12-C , 30-H ) :   0.9753 B( 13-C , 14-C ) :   1.3778 B( 13-C , 31-H ) :   0.9759
B( 14-C , 15-C ) :   1.3761 B( 14-C , 32-H ) :   0.9777 B( 15-C , 33-H ) :   0.9719
B( 16-C , 17-C ) :   1.3801 B( 16-C , 21-C ) :   1.3640 B( 17-C , 18-C ) :   1.3755
B( 17-C , 34-H ) :   0.9719 B( 18-C , 19-C ) :   1.3781 B( 18-C , 35-H ) :   0.9778
B( 19-C , 20-C ) :   1.3812 B( 19-C , 36-H ) :   0.9759 B( 20-C , 21-C ) :   1.3902
B( 20-C , 37-H ) :   0.9753 B( 21-C , 38-H ) :   0.9645

Dispersion correction           -0.092960637
FINAL SINGLE POINT ENERGY     -1188.358876424568

DIPOLE MOMENT
-------------

Method             : SCF
Type of density    : Electron Density
Multiplicity       :   1
Irrep              :   0
Energy             : -1188.2659157877360485 Eh
Relativity type    :
Basis              : AO
                                X                 Y                 Z
Electronic contribution:     -6.007755717      -0.996266424      -7.552497389
Nuclear contribution   :      6.221632584       1.535584765       8.914217615
                        -----------------------------------------
Total Dipole Moment    :      0.213876867       0.539318341       1.361720225
                        -----------------------------------------
Magnitude (a.u.)       :      1.480165383
Magnitude (Debye)      :      3.762281409

Rotational constants in cm-1:             0.010314             0.006597             0.005028
Rotational constants in MHz :           309.202396           197.768258           150.721426

                             ****ORCA TERMINATED NORMALLY****
TOTAL RUN TIME: 0 days 0 hours 3 minutes 48 seconds 730 msec
