                         Program Version 6.0.0  -   RELEASE   -
|  1> ! RI BP86 def2-SVP D3BJ TIGHTSCF Opt
|  2> %pal
|  3> nprocs 6
|  4> end
|  5>
|  6> * xyz 0 1
|  7> C      4.347487   -1.500709    0.366468
|  8> C      3.110497   -2.381526    0.490950
|  9> C      1.950506   -1.851809   -0.351575
| 10> C      1.610596   -0.389510   -0.005306
| 11> C      2.874450    0.482624   -0.148946
| 12> C      4.029911   -0.047849    0.698162
| 13> P      0.253404    0.256272   -1.097790
| 14> C     -1.208829   -0.817736   -0.695416
| 15> C     -1.589000   -0.902979    0.787786
| 16> C     -2.767229   -1.852885    1.009128
| 17> C     -3.973497   -1.459863    0.163114
| 18> C     -3.610642   -1.357249   -1.314205
| 19> C     -2.431140   -0.412050   -1.541034
| 20> C     -0.195720    1.879957   -0.420147
| 21> C     -0.666112    2.854679   -1.315217
| 22> C     -1.028082    4.129635   -0.871618
| 23> C     -0.922907    4.452726    0.477399
| 24> C     -0.455708    3.501442    1.379542
| 25> C     -0.093985    2.226204    0.933054
| 26> H      5.133202   -1.869655    1.035203
| 27> H      4.740764   -1.565038   -0.655530
| 28> H      3.353979   -3.403685    0.179633
| 29> H      2.802282   -2.433340    1.542522
| 30> H      1.084436   -2.502180   -0.184136
| 31> H      2.210573   -1.942994   -1.414767
| 32> H      1.290255   -0.359384    1.041202
| 33> H      2.672889    1.517376    0.151826
| 34> H      3.193261    0.521397   -1.199559
| 35> H      3.772759    0.038629    1.761045
| 36> H      4.920142    0.569767    0.533837
| 37> H     -0.923486   -1.825930   -1.022691
| 38> H     -1.868140    0.083212    1.175197
| 39> H     -0.745803   -1.255375    1.391093
| 40> H     -2.462450   -2.876871    0.760225
| 41> H     -3.045774   -1.851744    2.069061
| 42> H     -4.773961   -2.196163    0.296576
| 43> H     -4.364467   -0.495664    0.510713
| 44> H     -4.478697   -1.005487   -1.883128
| 45> H     -3.358986   -2.353152   -1.699166
| 46> H     -2.748378    0.609165   -1.294084
| 47> H     -2.178887   -0.413422   -2.609084
| 48> H     -0.755431    2.629425   -2.376523
| 49> H     -1.389816    4.867450   -1.582684
| 50> H     -1.203117    5.443416    0.824632
| 51> H     -0.371544    3.749125    2.434457
| 52> H      0.260395    1.511748    1.669778
| 53> **                         ****END OF INPUT****
 Total Charge           Charge          ....    0
 Multiplicity           Mult            ....    1
 Number of Electrons    NEL             ....  150
Dispersion correction           -0.096364953
FINAL SINGLE POINT ENERGY     -1043.047458447912
Dispersion correction             ... done (  0.1 sec)
Dispersion correction           -0.096708611
FINAL SINGLE POINT ENERGY     -1043.055397036772
Dispersion correction             ... done (  0.1 sec)
Dispersion correction           -0.096815350
FINAL SINGLE POINT ENERGY     -1043.056287410669
Dispersion correction             ... done (  0.1 sec)
FINAL SINGLE POINT ENERGY     -1043.056335178385
FINAL SINGLE POINT ENERGY     -1043.056524969321
Dispersion correction             ... done (  0.1 sec)
Dispersion correction           -0.096816930
FINAL SINGLE POINT ENERGY     -1043.056525907714
Dispersion correction             ... done (  0.1 sec)
Dispersion correction           -0.096755996
FINAL SINGLE POINT ENERGY     -1043.056597052062
Dispersion correction             ... done (  0.1 sec)
                    ***********************HURRAY********************

CARTESIAN COORDINATES (ANGSTROEM)
---------------------------------
  C      4.351741   -1.513225    0.431416
  C      3.094924   -2.385353    0.565779
  C      1.950212   -1.873065   -0.323773
  C      1.629914   -0.392136   -0.040661
  C      2.896724    0.477073   -0.172144
  C      4.036458   -0.038118    0.720208
  P      0.314816    0.231354   -1.232486
  C     -1.186840   -0.824428   -0.756273
  C     -1.527913   -0.904943    0.739595
  C     -2.744468   -1.811845    0.994948
  C     -3.963414   -1.364108    0.175152
  C     -3.626442   -1.285390   -1.321311
  C     -2.412935   -0.376746   -1.575519
  C     -0.166995    1.851561   -0.466307
  C     -0.778413    2.800591   -1.316679
  C     -1.215100    4.040721   -0.823497
  C     -1.026613    4.364359    0.530330
  C     -0.403705    3.438703    1.384784
  C      0.017548    2.193110    0.892224
  H      5.153580   -1.880935    1.106430
  H      4.748313   -1.603910   -0.605407
  H      3.324999   -3.443277    0.317080
  H      2.757946   -2.379884    1.627477
  H      1.047569   -2.502051   -0.173643
  H      2.233031   -1.982734   -1.395915
  H      1.261192   -0.319631    1.008018
  H      2.661694    1.534438    0.070389
  H      3.225062    0.468507   -1.236440
  H      3.742261    0.071774    1.789052
  H      4.942484    0.589351    0.581305
  H     -0.903169   -1.843705   -1.109596
  H     -1.749373    0.119317    1.113236
  H     -0.656219   -1.271068    1.321809
  H     -2.482962   -2.859035    0.719276
  H     -2.987340   -1.826597    2.079065
  H     -4.820450   -2.049861    0.345932
  H     -4.290606   -0.359322    0.527405
  H     -4.502565   -0.922265   -1.899764
  H     -3.401773   -2.308248   -1.700786
  H     -2.673741    0.667814   -1.291710
  H     -2.159242   -0.353210   -2.656869
  H     -0.904695    2.558063   -2.384311
  H     -1.694067    4.762568   -1.503164
  H     -1.358317    5.339676    0.918471
  H     -0.247901    3.686683    2.446403
  H      0.494791    1.479423    1.580467

 Multiplicity           Mult            ....    1
 Number of Electrons    NEL             ....  150
 Basis Dimension        Dim             ....  405

ORBITAL ENERGIES
----------------

  NO   OCC          E(Eh)            E(eV)
   0   2.0000     -76.329190     -2077.0228
   1   2.0000      -9.922000      -269.9913
   2   2.0000      -9.921570      -269.9796
   3   2.0000      -9.921405      -269.9751
   4   2.0000      -9.921253      -269.9710
   5   2.0000      -9.920733      -269.9569
   6   2.0000      -9.920271      -269.9443
   7   2.0000      -9.917725      -269.8750
   8   2.0000      -9.917243      -269.8619
   9   2.0000      -9.913479      -269.7595
  10   2.0000      -9.910941      -269.6904
  11   2.0000      -9.909412      -269.6488
  12   2.0000      -9.909332      -269.6466
  13   2.0000      -9.909109      -269.6406
  14   2.0000      -9.908982      -269.6371
  15   2.0000      -9.908939      -269.6359
  16   2.0000      -9.908739      -269.6305
  17   2.0000      -9.908199      -269.6158
  18   2.0000      -9.907560      -269.5984
  19   2.0000      -6.297764      -171.3709
  20   2.0000      -4.519427      -122.9798
  21   2.0000      -4.518950      -122.9669
  22   2.0000      -4.515571      -122.8749
  23   2.0000      -0.771391       -20.9906
  24   2.0000      -0.753638       -20.5075
  25   2.0000      -0.747695       -20.3458
  26   2.0000      -0.688652       -18.7392
  27   2.0000      -0.669308       -18.2128
  28   2.0000      -0.666002       -18.1228
  29   2.0000      -0.662431       -18.0257
  30   2.0000      -0.661250       -17.9935
  31   2.0000      -0.658787       -17.9265
  32   2.0000      -0.574736       -15.6394
  33   2.0000      -0.546655       -14.8752
  34   2.0000      -0.544018       -14.8035
  35   2.0000      -0.536258       -14.5923
  36   2.0000      -0.531857       -14.4726
  37   2.0000      -0.530971       -14.4485
  38   2.0000      -0.494999       -13.4696
  39   2.0000      -0.491768       -13.3817
  40   2.0000      -0.481565       -13.1041
  41   2.0000      -0.451705       -12.2915
  42   2.0000      -0.426195       -11.5974
  43   2.0000      -0.424170       -11.5423
  44   2.0000      -0.403521       -10.9804
  45   2.0000      -0.396548       -10.7906
  46   2.0000      -0.396067       -10.7775
  47   2.0000      -0.389560       -10.6005
  48   2.0000      -0.387607       -10.5473
  49   2.0000      -0.385990       -10.5033
  50   2.0000      -0.382532       -10.4092
  51   2.0000      -0.373054       -10.1513
  52   2.0000      -0.372729       -10.1425
  53   2.0000      -0.351437        -9.5631
  54   2.0000      -0.341919        -9.3041
  55   2.0000      -0.337855        -9.1935
  56   2.0000      -0.336820        -9.1653
  57   2.0000      -0.334644        -9.1061
  58   2.0000      -0.329082        -8.9548
  59   2.0000      -0.314400        -8.5553
  60   2.0000      -0.310264        -8.4427
  61   2.0000      -0.306115        -8.3298
  62   2.0000      -0.302347        -8.2273
  63   2.0000      -0.299397        -8.1470
  64   2.0000      -0.297453        -8.0941
  65   2.0000      -0.289020        -7.8646
  66   2.0000      -0.277122        -7.5409
  67   2.0000      -0.271710        -7.3936
  68   2.0000      -0.269191        -7.3251
  69   2.0000      -0.264381        -7.1942
  70   2.0000      -0.257464        -7.0059
  71   2.0000      -0.247773        -6.7422
  72   2.0000      -0.231307        -6.2942
  73   2.0000      -0.228950        -6.2300
  74   2.0000      -0.190641        -5.1876
  75   0.0000      -0.052091        -1.4175
  76   0.0000      -0.044300        -1.2055
  77   0.0000       0.018096         0.4924
  78   0.0000       0.024237         0.6595
  79   0.0000       0.029792         0.8107

MULLIKEN ATOMIC CHARGES
-----------------------
   0 C :   -0.026862
   1 C :   -0.004331
   2 C :    0.017818
   3 C :   -0.277437
   4 C :    0.033046
   5 C :   -0.001599
   6 P :    0.230649
   7 C :   -0.253851
   8 C :    0.018112
   9 C :   -0.004344
  10 C :   -0.026841
  11 C :   -0.005447
  12 C :    0.023938
  13 C :   -0.126066
  14 C :    0.010251
  15 C :   -0.000295
  16 C :    0.001513
  17 C :   -0.000127
  18 C :   -0.000926
  19 H :    0.017992
  20 H :    0.010874
  21 H :    0.018482
  22 H :    0.006446
  23 H :    0.023931
  24 H :    0.018136
  25 H :    0.030300
  26 H :    0.025286
  27 H :    0.016461
  28 H :    0.005141
  29 H :    0.019313
  30 H :    0.037281
  31 H :    0.024519
  32 H :    0.018561
  33 H :    0.005526
  34 H :    0.016020
  35 H :    0.017160
  36 H :    0.011877
  37 H :    0.017439
  38 H :    0.007336
  39 H :    0.022465
  40 H :    0.020371
  41 H :    0.000784
  42 H :    0.002995
  43 H :    0.003537
  44 H :   -0.000591
  45 H :   -0.004842
Sum of atomic charges:   -0.0000000

LOEWDIN ATOMIC CHARGES
----------------------
   0 C :   -0.047958
   1 C :   -0.045235
   2 C :   -0.050751
   3 C :   -0.171999
   4 C :   -0.051525
   5 C :   -0.045716
   6 P :    0.473798
   7 C :   -0.166268
   8 C :   -0.052956
   9 C :   -0.044659
  10 C :   -0.048143
  11 C :   -0.045333
  12 C :   -0.052387
  13 C :   -0.170134
  14 C :   -0.035992
  15 C :   -0.032922
  16 C :   -0.030567
  17 C :   -0.033447
  18 C :   -0.038862
  19 H :    0.026411
  20 H :    0.024557
  21 H :    0.027282
  22 H :    0.022978
  23 H :    0.024226
  24 H :    0.024755
  25 H :    0.012362
  26 H :    0.027405
  27 H :    0.024876
  28 H :    0.022373
  29 H :    0.027735
  30 H :    0.022796
  31 H :    0.028160
  32 H :    0.022989
  33 H :    0.022212
  34 H :    0.026199
  35 H :    0.026150
  36 H :    0.024644
  37 H :    0.026993
  38 H :    0.022685
  39 H :    0.025511
  40 H :    0.025143
  41 H :    0.028427
  42 H :    0.032928
  43 H :    0.032401
  44 H :    0.031989
  45 H :    0.026869

  Mayer bond orders larger than 0.100000
B(  0-C ,  1-C ) :   1.1001 B(  0-C ,  5-C ) :   1.0980 B(  0-C , 19-H ) :   0.9324
B(  0-C , 20-H ) :   0.9280 B(  1-C ,  2-C ) :   1.1022 B(  1-C , 21-H ) :   0.9305
B(  1-C , 22-H ) :   0.9249 B(  2-C ,  3-C ) :   1.0452 B(  2-C , 23-H ) :   0.9211
B(  2-C , 24-H ) :   0.9217 B(  3-C ,  4-C ) :   1.0436 B(  3-C ,  6-P ) :   0.9536
B(  3-C , 25-H ) :   0.8733 B(  4-C ,  5-C ) :   1.0998 B(  4-C , 26-H ) :   0.9234
B(  4-C , 27-H ) :   0.9200 B(  5-C , 28-H ) :   0.9255 B(  5-C , 29-H ) :   0.9307
B(  6-P ,  7-C ) :   0.9436 B(  6-P , 13-C ) :   0.9269 B(  7-C ,  8-C ) :   1.0300
B(  7-C , 12-C ) :   1.0486 B(  7-C , 30-H ) :   0.8951 B(  8-C ,  9-C ) :   1.0953
B(  8-C , 31-H ) :   0.9177 B(  8-C , 32-H ) :   0.9205 B(  9-C , 10-C ) :   1.1002
B(  9-C , 33-H ) :   0.9262 B(  9-C , 34-H ) :   0.9294 B( 10-C , 11-C ) :   1.0982
B( 10-C , 35-H ) :   0.9316 B( 10-C , 36-H ) :   0.9284 B( 11-C , 12-C ) :   1.1000
B( 11-C , 37-H ) :   0.9305 B( 11-C , 38-H ) :   0.9275 B( 12-C , 39-H ) :   0.9194
B( 12-C , 40-H ) :   0.9220 B( 13-C , 14-C ) :   1.3794 B( 13-C , 18-C ) :   1.3603
B( 14-C , 15-C ) :   1.3892 B( 14-C , 41-H ) :   0.9674 B( 15-C , 16-C ) :   1.3803
B( 15-C , 42-H ) :   0.9758 B( 16-C , 17-C ) :   1.3754 B( 16-C , 43-H ) :   0.9760
B( 17-C , 18-C ) :   1.3991 B( 17-C , 44-H ) :   0.9733 B( 18-C , 45-H ) :   0.9640

Dispersion correction           -0.096756893
FINAL SINGLE POINT ENERGY     -1043.056599219383

DIPOLE MOMENT
-------------

Method             : SCF
Type of density    : Electron Density
Multiplicity       :   1
Irrep              :   0
Energy             : -1042.9598423260042637 Eh
Relativity type    :
Basis              : AO
                                X                 Y                 Z
Electronic contribution:     -0.763421767      13.234636389      -5.785151687
Nuclear contribution   :      0.645761303     -13.310930393       6.240598164
                        -----------------------------------------
Total Dipole Moment    :     -0.117660464      -0.076294004       0.455446477
                        -----------------------------------------
Magnitude (a.u.)       :      0.476546171
Magnitude (Debye)      :      1.211284105

Rotational constants in cm-1:             0.012849             0.009080             0.006254
Rotational constants in MHz :           385.209633           272.198575           187.485717

                             ****ORCA TERMINATED NORMALLY****
TOTAL RUN TIME: 0 days 0 hours 2 minutes 44 seconds 491 msec
