                         Program Version 6.0.0  -   RELEASE   -
|  1> ! RIJCOSX M062X def2-TZVP D3ZERO NormalSCF
|  2> %pal
|  3> nprocs 6
|  4> end
|  5>
|  6> * xyz 0 1
|  7>   C          -0.82745963216870      4.88810106767774      2.09658185592847
|  8>   C          -0.06539783582728      3.55969451620665      2.08916384645776
|  9>   C          -0.36102353866464      2.69602869596900      0.85476934386293
| 10>   C           0.39391902571641      1.36105575626991      0.84983905631804
| 11>   P           0.11107584641465      0.34520194469817     -0.70337528927779
| 12>   C           1.13887335146212     -1.16175754715122     -0.25582845955100
| 13>   C           2.64773330183256     -0.94652247665589     -0.42675336685878
| 14>   C           3.48053284179419     -2.19991285847935     -0.12180889491081
| 15>   C           4.98734275669512     -1.98269488762861     -0.28909639190597
| 16>   C          -1.59305055892562     -0.33558557216510     -0.30587775662043
| 17>   C          -2.13331748887524     -1.29000663559338     -1.37805761716375
| 18>   C          -3.55888701096651     -1.78397516344667     -1.09388017351872
| 19>   C          -4.09227936354258     -2.74345197207748     -2.16182643168720
| 20>   H          -0.57466335744416      5.50259904921574      1.20688411035023
| 21>   H          -0.59409873962901      5.49181474866648      2.99722855977457
| 22>   H          -1.92559681062897      4.72312756643650      2.08027686282649
| 23>   H          -0.31081227501473      2.97917859542950      3.00681008127719
| 24>   H           1.02965786071494      3.75306341274921      2.14207014910947
| 25>   H          -0.10740771137713      3.26587020876422     -0.06727742548835
| 26>   H          -1.45763063280927      2.51105990458591      0.79862862128874
| 27>   H           0.13259466634281      0.75642807516712      1.74858363611510
| 28>   H           1.48801153177853      1.55297231649255      0.90658826583670
| 29>   H           0.80330733246461     -1.98475931609734     -0.92428258757760
| 30>   H           0.90218046177270     -1.48331074023806      0.78451074319548
| 31>   H           2.85527783419618     -0.60471296225833     -1.46553108985792
| 32>   H           2.98932348806532     -0.11775357802894      0.23381040366384
| 33>   H           3.26139995679120     -2.53848776690949      0.91578695733782
| 34>   H           3.14315103433976     -3.02884224584012     -0.78388880535548
| 35>   H           5.23682484219563     -1.67463924934858     -1.32630899368422
| 36>   H           5.56346442016516     -2.90361287670628     -0.06545688752717
| 37>   H           5.35693788412329     -1.18422962919316      0.38854573230920
| 38>   H          -1.57805999510066     -0.83128857019010      0.69203820986721
| 39>   H          -2.27158312217984      0.54068356391900     -0.21284136378824
| 40>   H          -1.45898331752679     -2.17079182437747     -1.47436237685207
| 41>   H          -2.10564815134721     -0.78358281148069     -2.36899800547273
| 42>   H          -4.23593461202701     -0.90480556172482     -1.00443880413197
| 43>   H          -3.58065038581866     -2.27985793841228     -0.09742663465595
| 44>   H          -3.45249394708578     -3.64720382448946     -2.24681357622996
| 45>   H          -4.11413658178384     -2.26127018971369     -3.16186281931217
| 46>   H          -5.12249736812156     -3.08382522404119     -1.93197868409096
| 47> **                         ****END OF INPUT****

CARTESIAN COORDINATES (ANGSTROEM)
---------------------------------
  C     -0.827460    4.888101    2.096582
  C     -0.065398    3.559695    2.089164
  C     -0.361024    2.696029    0.854769
  C      0.393919    1.361056    0.849839
  P      0.111076    0.345202   -0.703375
  C      1.138873   -1.161758   -0.255828
  C      2.647733   -0.946522   -0.426753
  C      3.480533   -2.199913   -0.121809
  C      4.987343   -1.982695   -0.289096
  C     -1.593051   -0.335586   -0.305878
  C     -2.133317   -1.290007   -1.378058
  C     -3.558887   -1.783975   -1.093880
  C     -4.092279   -2.743452   -2.161826
  H     -0.574663    5.502599    1.206884
  H     -0.594099    5.491815    2.997229
  H     -1.925597    4.723128    2.080277
  H     -0.310812    2.979179    3.006810
  H      1.029658    3.753063    2.142070
  H     -0.107408    3.265870   -0.067277
  H     -1.457631    2.511060    0.798629
  H      0.132595    0.756428    1.748584
  H      1.488012    1.552972    0.906588
  H      0.803307   -1.984759   -0.924283
  H      0.902180   -1.483311    0.784511
  H      2.855278   -0.604713   -1.465531
  H      2.989323   -0.117754    0.233810
  H      3.261400   -2.538488    0.915787
  H      3.143151   -3.028842   -0.783889
  H      5.236825   -1.674639   -1.326309
  H      5.563464   -2.903613   -0.065457
  H      5.356938   -1.184230    0.388546
  H     -1.578060   -0.831289    0.692038
  H     -2.271583    0.540684   -0.212841
  H     -1.458983   -2.170792   -1.474362
  H     -2.105648   -0.783583   -2.368998
  H     -4.235935   -0.904806   -1.004439
  H     -3.580650   -2.279858   -0.097427
  H     -3.452494   -3.647204   -2.246814
  H     -4.114137   -2.261270   -3.161863
  H     -5.122497   -3.083825   -1.931979

 Total Charge           Charge          ....    0
 Multiplicity           Mult            ....    1
 Number of Electrons    NEL             ....  114
 Basis Dimension        Dim             ....  571

ORBITAL ENERGIES
----------------

  NO   OCC          E(Eh)            E(eV)
   0   2.0000     -78.011296     -2122.7953
   1   2.0000     -10.535809      -286.6939
   2   2.0000     -10.535785      -286.6933
   3   2.0000     -10.535769      -286.6929
   4   2.0000     -10.535317      -286.6805
   5   2.0000     -10.535307      -286.6803
   6   2.0000     -10.535290      -286.6798
   7   2.0000     -10.534116      -286.6479
   8   2.0000     -10.534106      -286.6476
   9   2.0000     -10.534068      -286.6466
  10   2.0000     -10.527412      -286.4654
  11   2.0000     -10.527406      -286.4653
  12   2.0000     -10.527383      -286.4647
  13   2.0000      -6.827338      -185.7813
  14   2.0000      -4.941775      -134.4725
  15   2.0000      -4.941482      -134.4646
  16   2.0000      -4.941478      -134.4645
  17   2.0000      -0.901350       -24.5270
  18   2.0000      -0.890139       -24.2219
  19   2.0000      -0.890095       -24.2207
  20   2.0000      -0.840401       -22.8685
  21   2.0000      -0.810393       -22.0519
  22   2.0000      -0.810307       -22.0496
  23   2.0000      -0.742082       -20.1931
  24   2.0000      -0.705675       -19.2024
  25   2.0000      -0.705601       -19.2004
  26   2.0000      -0.658257       -17.9121
  27   2.0000      -0.655816       -17.8457
  28   2.0000      -0.655743       -17.8437
  29   2.0000      -0.593194       -16.1416
  30   2.0000      -0.539780       -14.6882
  31   2.0000      -0.539685       -14.6856
  32   2.0000      -0.539211       -14.6727
  33   2.0000      -0.497346       -13.5335
  34   2.0000      -0.497254       -13.5310
  35   2.0000      -0.496382       -13.5072
  36   2.0000      -0.480290       -13.0694
  37   2.0000      -0.480190       -13.0666
  38   2.0000      -0.477379       -12.9901
  39   2.0000      -0.458930       -12.4881
  40   2.0000      -0.458875       -12.4866
  41   2.0000      -0.446086       -12.1386
  42   2.0000      -0.425142       -11.5687
  43   2.0000      -0.425079       -11.5670
  44   2.0000      -0.422621       -11.5001
  45   2.0000      -0.408552       -11.1173
  46   2.0000      -0.408523       -11.1165
  47   2.0000      -0.398592       -10.8462
  48   2.0000      -0.394083       -10.7236
  49   2.0000      -0.391232       -10.6460
  50   2.0000      -0.391208       -10.6453
  51   2.0000      -0.383567       -10.4374
  52   2.0000      -0.378025       -10.2866
  53   2.0000      -0.377964       -10.2849
  54   2.0000      -0.340810        -9.2739
  55   2.0000      -0.340692        -9.2707
  56   2.0000      -0.272430        -7.4132
  57   0.0000       0.061257         1.6669
  58   0.0000       0.061304         1.6682
  59   0.0000       0.064622         1.7585
  60   0.0000       0.076786         2.0895
  61   0.0000       0.076890         2.0923

MULLIKEN ATOMIC CHARGES
-----------------------
   0 C :   -0.429740
   1 C :   -0.232543
   2 C :   -0.290355
   3 C :   -0.413858
   4 P :    0.250555
   5 C :   -0.413444
   6 C :   -0.289726
   7 C :   -0.232977
   8 C :   -0.428614
   9 C :   -0.412539
  10 C :   -0.292286
  11 C :   -0.232979
  12 C :   -0.428708
  13 H :    0.138010
  14 H :    0.142171
  15 H :    0.136144
  16 H :    0.129656
  17 H :    0.130540
  18 H :    0.148822
  19 H :    0.138741
  20 H :    0.160118
  21 H :    0.158386
  22 H :    0.158504
  23 H :    0.160660
  24 H :    0.148877
  25 H :    0.138163
  26 H :    0.129580
  27 H :    0.130481
  28 H :    0.137743
  29 H :    0.141761
  30 H :    0.135940
  31 H :    0.160376
  32 H :    0.158395
  33 H :    0.138546
  34 H :    0.149250
  35 H :    0.130575
  36 H :    0.129771
  37 H :    0.136026
  38 H :    0.138027
  39 H :    0.141952
Sum of atomic charges:   -0.0000000

LOEWDIN ATOMIC CHARGES
----------------------
   0 C :   -0.326145
   1 C :   -0.306356
   2 C :   -0.308687
   3 C :   -0.420607
   4 P :    0.551329
   5 C :   -0.420217
   6 C :   -0.308678
   7 C :   -0.306317
   8 C :   -0.326022
   9 C :   -0.420428
  10 C :   -0.308833
  11 C :   -0.306359
  12 C :   -0.326088
  13 H :    0.122304
  14 H :    0.121834
  15 H :    0.121609
  16 H :    0.136357
  17 H :    0.136641
  18 H :    0.140376
  19 H :    0.136166
  20 H :    0.128419
  21 H :    0.134235
  22 H :    0.134076
  23 H :    0.128515
  24 H :    0.140368
  25 H :    0.136024
  26 H :    0.136345
  27 H :    0.136614
  28 H :    0.122280
  29 H :    0.121787
  30 H :    0.121595
  31 H :    0.128431
  32 H :    0.134162
  33 H :    0.136102
  34 H :    0.140409
  35 H :    0.136651
  36 H :    0.136368
  37 H :    0.121633
  38 H :    0.122283
  39 H :    0.121824

  Mayer bond orders larger than 0.100000
B(  0-C ,  1-C ) :   0.9510 B(  0-C , 13-H ) :   0.9732 B(  0-C , 14-H ) :   0.9806
B(  0-C , 15-H ) :   0.9739 B(  1-C ,  2-C ) :   0.9323 B(  1-C , 16-H ) :   0.9733
B(  1-C , 17-H ) :   0.9751 B(  2-C ,  3-C ) :   0.9172 B(  2-C , 18-H ) :   0.9681
B(  2-C , 19-H ) :   0.9806 B(  3-C ,  4-P ) :   0.9667 B(  3-C , 20-H ) :   0.9643
B(  3-C , 21-H ) :   0.9545 B(  4-P ,  5-C ) :   0.9654 B(  4-P ,  9-C ) :   0.9657
B(  5-C ,  6-C ) :   0.9182 B(  5-C , 22-H ) :   0.9547 B(  5-C , 23-H ) :   0.9643
B(  6-C ,  7-C ) :   0.9313 B(  6-C , 24-H ) :   0.9681 B(  6-C , 25-H ) :   0.9811
B(  7-C ,  8-C ) :   0.9515 B(  7-C , 26-H ) :   0.9731 B(  7-C , 27-H ) :   0.9756
B(  8-C , 28-H ) :   0.9732 B(  8-C , 29-H ) :   0.9807 B(  8-C , 30-H ) :   0.9740
B(  9-C , 10-C ) :   0.9166 B(  9-C , 31-H ) :   0.9645 B(  9-C , 32-H ) :   0.9546
B( 10-C , 11-C ) :   0.9313 B( 10-C , 33-H ) :   0.9808 B( 10-C , 34-H ) :   0.9683
B( 11-C , 12-C ) :   0.9504 B( 11-C , 35-H ) :   0.9754 B( 11-C , 36-H ) :   0.9734
B( 12-C , 37-H ) :   0.9739 B( 12-C , 38-H ) :   0.9733 B( 12-C , 39-H ) :   0.9805

Dispersion correction           -0.001778616
FINAL SINGLE POINT ENERGY      -814.817695236077

DIPOLE MOMENT
-------------

Method             : SCF
Type of density    : Electron Density
Multiplicity       :   1
Irrep              :   0
Energy             :  -814.8159166196385286 Eh
Relativity type    :
Basis              : AO
                                X                 Y                 Z
Electronic contribution:      0.574895777       1.817727167      -3.681135939
Nuclear contribution   :     -0.643996831      -2.019962325       4.095921839
                        -----------------------------------------
Total Dipole Moment    :     -0.069101054      -0.202235158       0.414785900
                        -----------------------------------------
Magnitude (a.u.)       :      0.466606213
Magnitude (Debye)      :      1.186018738

Rotational constants in cm-1:             0.012907             0.012836             0.006680
Rotational constants in MHz :           386.952198           384.813090           200.252483

                             ****ORCA TERMINATED NORMALLY****
TOTAL RUN TIME: 0 days 0 hours 1 minutes 4 seconds 379 msec
