                         Program Version 6.0.0  -   RELEASE   -
|  1> ! RI BP86 def2-SVP D3BJ TIGHTSCF Opt
|  2> %pal
|  3> nprocs 6
|  4> end
|  5>
|  6> * xyz 0 1
|  7> C     -2.286744   -0.828031   -0.955374
|  8> P     -1.554620   -0.530040    0.699619
|  9> C     -2.106181    1.196557    0.979709
| 10> C      0.207234   -0.312296    0.307404
| 11> C      0.675464    0.578137   -0.667905
| 12> C      2.043938    0.702915   -0.926149
| 13> C      2.962990   -0.061494   -0.212141
| 14> C      2.514525   -0.950893    0.760243
| 15> C      1.146475   -1.074825    1.017561
| 16> H     -3.374958   -0.908953   -0.872489
| 17> H     -2.067044   -0.026141   -1.665760
| 18> H     -1.914153   -1.767431   -1.374953
| 19> H     -1.899710    1.850122    0.127554
| 20> H     -3.185228    1.218423    1.160839
| 21> H     -1.612244    1.617769    1.860590
| 22> H     -0.014201    1.189569   -1.243264
| 23> H      2.390456    1.398357   -1.686091
| 24> H      4.026477    0.035582   -0.412944
| 25> H      3.226816   -1.550290    1.320898
| 26> H      0.820708   -1.777038    1.782651
| 27> **                         ****END OF INPUT****
 Total Charge           Charge          ....    0
 Multiplicity           Mult            ....    1
 Number of Electrons    NEL             ....   74
Dispersion correction           -0.036398218
FINAL SINGLE POINT ENERGY      -652.561950637154
Dispersion correction             ... done (  0.1 sec)
Dispersion correction           -0.036259334
FINAL SINGLE POINT ENERGY      -652.565430229169
Dispersion correction             ... done (  0.1 sec)
Dispersion correction           -0.036196161
FINAL SINGLE POINT ENERGY      -652.565926284927
Dispersion correction             ... done (  0.1 sec)
FINAL SINGLE POINT ENERGY      -652.566050942207
Dispersion correction             ... done (  0.1 sec)
Dispersion correction           -0.036159679
FINAL SINGLE POINT ENERGY      -652.566067060079
Dispersion correction             ... done (  0.1 sec)
Dispersion correction           -0.036163942
FINAL SINGLE POINT ENERGY      -652.566070314388
Dispersion correction             ... done (  0.1 sec)
                    ***********************HURRAY********************

CARTESIAN COORDINATES (ANGSTROEM)
---------------------------------
  C     -2.292522   -0.832323   -0.977544
  P     -1.589631   -0.565343    0.734521
  C     -2.110045    1.212421    0.992317
  C      0.208464   -0.322865    0.316163
  C      0.666966    0.574610   -0.672354
  C      2.037792    0.708365   -0.939757
  C      2.974146   -0.055231   -0.220051
  C      2.532073   -0.950958    0.766324
  C      1.157937   -1.082607    1.031034
  H     -3.398666   -0.874549   -0.907910
  H     -2.011376   -0.033917   -1.695575
  H     -1.936015   -1.805976   -1.368533
  H     -1.844885    1.875546    0.142368
  H     -3.208954    1.245660    1.139136
  H     -1.629354    1.601565    1.911817
  H     -0.053606    1.180612   -1.245098
  H      2.379544    1.412394   -1.714527
  H      4.049719    0.049668   -0.430199
  H      3.260043   -1.551579    1.333443
  H      0.808370   -1.785495    1.804422

 Multiplicity           Mult            ....    1
 Number of Electrons    NEL             ....   74
 Basis Dimension        Dim             ....  185

ORBITAL ENERGIES
----------------

  NO   OCC          E(Eh)            E(eV)
   0   2.0000     -76.334965     -2077.1800
   1   2.0000      -9.924215      -270.0516
   2   2.0000      -9.923718      -270.0381
   3   2.0000      -9.923339      -270.0278
   4   2.0000      -9.922208      -269.9970
   5   2.0000      -9.921954      -269.9901
   6   2.0000      -9.921635      -269.9814
   7   2.0000      -9.913471      -269.7593
   8   2.0000      -9.913434      -269.7583
   9   2.0000      -6.304627      -171.5576
  10   2.0000      -4.526228      -123.1649
  11   2.0000      -4.525859      -123.1549
  12   2.0000      -4.522329      -123.0588
  13   2.0000      -0.772214       -21.0130
  14   2.0000      -0.689103       -18.7514
  15   2.0000      -0.670234       -18.2380
  16   2.0000      -0.650481       -17.7005
  17   2.0000      -0.613456       -16.6930
  18   2.0000      -0.547154       -14.8888
  19   2.0000      -0.540047       -14.6954
  20   2.0000      -0.490531       -13.3480
  21   2.0000      -0.451568       -12.2878
  22   2.0000      -0.407263       -11.0822
  23   2.0000      -0.399049       -10.8587
  24   2.0000      -0.383522       -10.4362
  25   2.0000      -0.377926       -10.2839
  26   2.0000      -0.368927       -10.0390
  27   2.0000      -0.362196        -9.8559
  28   2.0000      -0.353574        -9.6212
  29   2.0000      -0.339402        -9.2356
  30   2.0000      -0.331446        -9.0191
  31   2.0000      -0.305619        -8.3163
  32   2.0000      -0.296597        -8.0708
  33   2.0000      -0.281144        -7.6503
  34   2.0000      -0.233722        -6.3599
  35   2.0000      -0.230744        -6.2789
  36   2.0000      -0.199726        -5.4348
  37   0.0000      -0.055018        -1.4971
  38   0.0000      -0.045201        -1.2300
  39   0.0000       0.026010         0.7078
  40   0.0000       0.034180         0.9301
  41   0.0000       0.037428         1.0185

MULLIKEN ATOMIC CHARGES
-----------------------
   0 C :   -0.194652
   1 P :    0.134356
   2 C :   -0.194226
   3 C :   -0.106243
   4 C :   -0.012832
   5 C :    0.003401
   6 C :    0.001036
   7 C :    0.000032
   8 C :   -0.001323
   9 H :    0.062504
  10 H :    0.048702
  11 H :    0.071025
  12 H :    0.048714
  13 H :    0.062504
  14 H :    0.070815
  15 H :   -0.005977
  16 H :    0.001563
  17 H :    0.005532
  18 H :    0.005071
  19 H :   -0.000002
Sum of atomic charges:   -0.0000000

LOEWDIN ATOMIC CHARGES
----------------------
   0 C :   -0.225115
   1 P :    0.446712
   2 C :   -0.225113
   3 C :   -0.175292
   4 C :   -0.033340
   5 C :   -0.031655
   6 C :   -0.027648
   7 C :   -0.031800
   8 C :   -0.034990
   9 H :    0.033382
  10 H :    0.022287
  11 H :    0.036587
  12 H :    0.022403
  13 H :    0.033324
  14 H :    0.036539
  15 H :    0.025540
  16 H :    0.032339
  17 H :    0.033009
  18 H :    0.033333
  19 H :    0.029496

  Mayer bond orders larger than 0.100000
B(  0-C ,  1-P ) :   0.9954 B(  0-C ,  9-H ) :   0.9616 B(  0-C , 10-H ) :   0.9494
B(  0-C , 11-H ) :   0.9627 B(  1-P ,  2-C ) :   0.9951 B(  1-P ,  3-C ) :   0.9181
B(  2-C , 12-H ) :   0.9495 B(  2-C , 13-H ) :   0.9617 B(  2-C , 14-H ) :   0.9627
B(  3-C ,  4-C ) :   1.3594 B(  3-C ,  8-C ) :   1.3988 B(  4-C ,  5-C ) :   1.4116
B(  4-C , 15-H ) :   0.9669 B(  5-C ,  6-C ) :   1.3722 B(  5-C , 16-H ) :   0.9737
B(  6-C ,  7-C ) :   1.3914 B(  6-C , 17-H ) :   0.9757 B(  7-C ,  8-C ) :   1.3793
B(  7-C , 18-H ) :   0.9766 B(  8-C , 19-H ) :   0.9743

Dispersion correction           -0.036168248
FINAL SINGLE POINT ENERGY      -652.566071204135

DIPOLE MOMENT
-------------

Method             : SCF
Type of density    : Electron Density
Multiplicity       :   1
Irrep              :   0
Energy             :  -652.5299029561660973 Eh
Relativity type    :
Basis              : AO
                                X                 Y                 Z
Electronic contribution:      2.695711420      -3.147375123       3.015970582
Nuclear contribution   :     -2.578021124       3.455793281      -3.347417118
                        -----------------------------------------
Total Dipole Moment    :      0.117690296       0.308418158      -0.331446537
                        -----------------------------------------
Magnitude (a.u.)       :      0.467792232
Magnitude (Debye)      :      1.189033360

Rotational constants in cm-1:             0.094036             0.028605             0.026638
Rotational constants in MHz :          2819.134760           857.556130           798.595302

                             ****ORCA TERMINATED NORMALLY****
TOTAL RUN TIME: 0 days 0 hours 0 minutes 35 seconds 356 msec
