                         Program Version 6.0.0  -   RELEASE   -
|  1> ! RI BP86 def2-SVP D3BJ TIGHTSCF Opt
|  2> %pal
|  3> nprocs 6
|  4> end
|  5>
|  6> * xyz 0 1
|  7> C     -0.233815    1.589409   -0.238579
|  8> O     -1.507464    2.218849   -0.220496
|  9> P     -0.176268   -0.014496    0.658466
| 10> C      1.520881   -0.539231    0.184281
| 11> O      2.555214    0.196624    0.822542
| 12> C     -1.129033   -1.037181   -0.536049
| 13> O     -1.148269   -2.423739   -0.226548
| 14> H      0.480833    2.284633    0.213647
| 15> H      0.055577    1.464883   -1.286643
| 16> H     -1.778948    2.226238    0.713391
| 17> H      1.661369   -1.593377    0.444296
| 18> H      1.673246   -0.449772   -0.895753
| 19> H      2.337412    0.179902    1.770269
| 20> H     -0.729770   -0.932950   -1.549665
| 21> H     -2.168145   -0.693390   -0.561031
| 22> H     -1.412821   -2.476401    0.707873
| 23> **                         ****END OF INPUT****
 Total Charge           Charge          ....    0
 Multiplicity           Mult            ....    1
 Number of Electrons    NEL             ....   66
Dispersion correction           -0.022469255
FINAL SINGLE POINT ENERGY      -686.405087586837
Dispersion correction             ... done (  0.1 sec)
Dispersion correction           -0.022256895
FINAL SINGLE POINT ENERGY      -686.411647698727
Dispersion correction             ... done (  0.1 sec)
Dispersion correction           -0.022120315
FINAL SINGLE POINT ENERGY      -686.413828694413
Dispersion correction             ... done (  0.1 sec)
FINAL SINGLE POINT ENERGY      -686.414378560866
FINAL SINGLE POINT ENERGY      -686.414450918266
FINAL SINGLE POINT ENERGY      -686.414485641277
Dispersion correction             ... done (  0.1 sec)
Dispersion correction           -0.021969908
FINAL SINGLE POINT ENERGY      -686.414494895881
Dispersion correction             ... done (  0.1 sec)
Dispersion correction           -0.021973117
FINAL SINGLE POINT ENERGY      -686.414498197203
Dispersion correction             ... done (  0.1 sec)
                    ***********************HURRAY********************

CARTESIAN COORDINATES (ANGSTROEM)
---------------------------------
  C     -0.322140    1.619373   -0.293434
  O     -1.577500    2.242978   -0.091739
  P     -0.171965   -0.013879    0.638544
  C      1.600337   -0.467205    0.176451
  O      2.555995    0.211835    0.970682
  C     -1.097628   -1.137472   -0.561423
  O     -1.187202   -2.470813   -0.092857
  H      0.550291    2.242453    0.023079
  H     -0.219832    1.449080   -1.387480
  H     -1.674601    2.385009    0.869745
  H      1.665939   -1.581255    0.240188
  H      1.805058   -0.189584   -0.880550
  H      2.372549   -0.022493    1.900984
  H     -0.568803   -1.174896   -1.538793
  H     -2.088255   -0.653009   -0.744283
  H     -1.642245   -2.440121    0.770886

 Multiplicity           Mult            ....    1
 Number of Electrons    NEL             ....   66
 Basis Dimension        Dim             ....  147

ORBITAL ENERGIES
----------------

  NO   OCC          E(Eh)            E(eV)
   0   2.0000     -76.331243     -2077.0787
   1   2.0000     -18.785618      -511.1827
   2   2.0000     -18.785590      -511.1819
   3   2.0000     -18.785516      -511.1799
   4   2.0000      -9.967092      -271.2184
   5   2.0000      -9.967071      -271.2178
   6   2.0000      -9.967009      -271.2161
   7   2.0000      -6.305097      -171.5704
   8   2.0000      -4.526218      -123.1646
   9   2.0000      -4.526215      -123.1646
  10   2.0000      -4.522819      -123.0722
  11   2.0000      -0.930546       -25.3214
  12   2.0000      -0.928520       -25.2663
  13   2.0000      -0.928462       -25.2647
  14   2.0000      -0.670658       -18.2495
  15   2.0000      -0.603641       -16.4259
  16   2.0000      -0.603601       -16.4248
  17   2.0000      -0.518694       -14.1144
  18   2.0000      -0.465968       -12.6796
  19   2.0000      -0.465936       -12.6788
  20   2.0000      -0.430400       -11.7118
  21   2.0000      -0.405650       -11.0383
  22   2.0000      -0.386607       -10.5201
  23   2.0000      -0.386581       -10.5194
  24   2.0000      -0.371852       -10.1186
  25   2.0000      -0.371826       -10.1179
  26   2.0000      -0.311624        -8.4797
  27   2.0000      -0.288083        -7.8391
  28   2.0000      -0.288056        -7.8384
  29   2.0000      -0.254589        -6.9277
  30   2.0000      -0.214274        -5.8307
  31   2.0000      -0.214241        -5.8298
  32   2.0000      -0.213542        -5.8108
  33   0.0000      -0.006717        -0.1828
  34   0.0000      -0.006631        -0.1804
  35   0.0000       0.040797         1.1102
  36   0.0000       0.043638         1.1874
  37   0.0000       0.058297         1.5863

MULLIKEN ATOMIC CHARGES
-----------------------
   0 C :    0.022578
   1 O :   -0.288530
   2 P :   -0.017864
   3 C :    0.022482
   4 O :   -0.288407
   5 C :    0.022546
   6 O :   -0.288497
   7 H :    0.050835
   8 H :    0.047079
   9 H :    0.173930
  10 H :    0.050833
  11 H :    0.047065
  12 H :    0.173955
  13 H :    0.047098
  14 H :    0.050918
  15 H :    0.173978
Sum of atomic charges:   -0.0000000

LOEWDIN ATOMIC CHARGES
----------------------
   0 C :   -0.082478
   1 O :   -0.137705
   2 P :    0.333419
   3 C :   -0.082444
   4 O :   -0.137583
   5 C :   -0.082450
   6 O :   -0.137634
   7 H :    0.011163
   8 H :    0.019580
   9 H :    0.078211
  10 H :    0.011135
  11 H :    0.019554
  12 H :    0.078241
  13 H :    0.019564
  14 H :    0.011181
  15 H :    0.078247

  Mayer bond orders larger than 0.100000
B(  0-C ,  1-O ) :   1.0391 B(  0-C ,  2-P ) :   0.9426 B(  0-C ,  7-H ) :   0.9289
B(  0-C ,  8-H ) :   0.9307 B(  1-O ,  9-H ) :   0.9713 B(  2-P ,  3-C ) :   0.9426
B(  2-P ,  5-C ) :   0.9427 B(  3-C ,  4-O ) :   1.0391 B(  3-C , 10-H ) :   0.9289
B(  3-C , 11-H ) :   0.9307 B(  4-O , 12-H ) :   0.9713 B(  5-C ,  6-O ) :   1.0390
B(  5-C , 13-H ) :   0.9307 B(  5-C , 14-H ) :   0.9290 B(  6-O , 15-H ) :   0.9713

Dispersion correction           -0.021976416
FINAL SINGLE POINT ENERGY      -686.414499253977

DIPOLE MOMENT
-------------

Method             : SCF
Type of density    : Electron Density
Multiplicity       :   1
Irrep              :   0
Energy             :  -686.3925228384287038 Eh
Relativity type    :
Basis              : AO
                                X                 Y                 Z
Electronic contribution:     -0.880061142      -0.071061340       3.281627777
Nuclear contribution   :      0.723602612       0.056648255      -2.694595681
                        -----------------------------------------
Total Dipole Moment    :     -0.156458531      -0.014413085       0.587032096
                        -----------------------------------------
Magnitude (a.u.)       :      0.607695393
Magnitude (Debye)      :      1.544638934

Rotational constants in cm-1:             0.061145             0.061064             0.033479
Rotational constants in MHz :          1833.084764          1830.637804          1003.670329

                             ****ORCA TERMINATED NORMALLY****
TOTAL RUN TIME: 0 days 0 hours 0 minutes 32 seconds 914 msec
