                         Program Version 6.0.0  -   RELEASE   -
|  1> ! RIJCOSX M062X def2-TZVP D3ZERO NormalSCF
|  2> %pal
|  3> nprocs 6
|  4> end
|  5>
|  6> * xyz 0 1
|  7>   C          -0.37966319757932      6.58368331526165     -1.08348398517452
|  8>   O           0.19346049066051      5.42101041714460     -1.65918774955133
|  9>   C           0.11637508978791      4.25072709746472     -0.96843433736560
| 10>   C           0.71620271061987      3.12850575258841     -1.58522980464229
| 11>   C           0.68927128261402      1.88251588731878     -0.95391541321858
| 12>   C           0.05642351949912      1.72746126549483      0.29935878444492
| 13>   C          -0.52383287831310      2.85104859876699      0.91643521156804
| 14>   C          -0.50107887405746      4.10807891556275      0.29398821238951
| 15>   P          -0.06453504179689      0.13902064997947      1.19375943322319
| 16>   O          -0.14933377942847      0.30828661172913      2.70273342377015
| 17>   C           1.38525559597803     -0.83723622519436      0.66212057470273
| 18>   C           1.43406952256923     -1.59132936725229     -0.53126649630266
| 19>   C           2.59081566456297     -2.29254035410778     -0.88017379537338
| 20>   C           3.72321890606883     -2.26111947541208     -0.03378477193072
| 21>   C           3.67534927396589     -1.52568533878848      1.17121470332503
| 22>   C           2.50872260443638     -0.82326397302676      1.50889869808016
| 23>   O           4.80236525522047     -2.97421613048070     -0.45746104254471
| 24>   C           5.96340194798842     -2.98947046939407      0.35721699515744
| 25>   C          -1.51726423652240     -0.71304958756343      0.48582214469872
| 26>   C          -1.96829275353892     -0.53319216612727     -0.84062239450506
| 27>   C          -3.07374272063700     -1.24299897133045     -1.31570538852510
| 28>   C          -3.75845680616518     -2.14311958919694     -0.46673957438837
| 29>   C          -3.32604139866917     -2.31300949048838      0.86722061961162
| 30>   C          -2.21268569098035     -1.59659687402365      1.33150357679747
| 31>   O          -4.82190590744483     -2.78891829827574     -1.01870806840469
| 32>   C          -5.55129426166945     -3.69983630136100     -0.21272583977098
| 33>   H          -0.20359418159596      7.40597328920929     -1.80118804035958
| 34>   H          -1.47531189010422      6.46953294012632     -0.92419635600601
| 35>   H           0.09731046922821      6.84179014086058     -0.11160593884436
| 36>   H           1.20755728561383      3.26904470520944     -2.55897742459974
| 37>   H           1.18247106774155      1.02250782172111     -1.43310894587449
| 38>   H          -0.98570411660137      2.73048443981183      1.90877072394663
| 39>   H          -0.95857875561275      4.96812041443354      0.80107009565736
| 40>   H           0.55073346702084     -1.64480064687557     -1.18643532951020
| 41>   H           2.64593606299628     -2.88752562100539     -1.80340013638028
| 42>   H           4.53565314896628     -1.49973545272837      1.85336719483174
| 43>   H           2.45224972979421     -0.26119020623533      2.45420704474452
| 44>   H           5.75990484902253     -3.43013165717631      1.35874952180802
| 45>   H           6.70530229655694     -3.61771718385846     -0.16921794830844
| 46>   H           6.38493525108662     -1.96871014124015      0.49551739335678
| 47>   H          -1.45927798936104      0.18406355707605     -1.50317249434193
| 48>   H          -3.44149112346960     -1.11381256097749     -2.34402756842129
| 49>   H          -3.85182870571635     -2.99316210810227      1.55064672037812
| 50>   H          -1.87591755162517     -1.70609328930665      2.37420311911210
| 51>   H          -6.00853350349132     -3.19809708640204      0.66935090669165
| 52>   H          -4.91284256357102     -4.53842939130136      0.14502609230324
| 53>   H          -6.35577756404758     -4.10687086252671     -0.85257734625483
| 54> **                         ****END OF INPUT****

CARTESIAN COORDINATES (ANGSTROEM)
---------------------------------
  C     -0.379663    6.583683   -1.083484
  O      0.193460    5.421010   -1.659188
  C      0.116375    4.250727   -0.968434
  C      0.716203    3.128506   -1.585230
  C      0.689271    1.882516   -0.953915
  C      0.056424    1.727461    0.299359
  C     -0.523833    2.851049    0.916435
  C     -0.501079    4.108079    0.293988
  P     -0.064535    0.139021    1.193759
  O     -0.149334    0.308287    2.702733
  C      1.385256   -0.837236    0.662121
  C      1.434070   -1.591329   -0.531266
  C      2.590816   -2.292540   -0.880174
  C      3.723219   -2.261119   -0.033785
  C      3.675349   -1.525685    1.171215
  C      2.508723   -0.823264    1.508899
  O      4.802365   -2.974216   -0.457461
  C      5.963402   -2.989470    0.357217
  C     -1.517264   -0.713050    0.485822
  C     -1.968293   -0.533192   -0.840622
  C     -3.073743   -1.242999   -1.315705
  C     -3.758457   -2.143120   -0.466740
  C     -3.326041   -2.313009    0.867221
  C     -2.212686   -1.596597    1.331504
  O     -4.821906   -2.788918   -1.018708
  C     -5.551294   -3.699836   -0.212726
  H     -0.203594    7.405973   -1.801188
  H     -1.475312    6.469533   -0.924196
  H      0.097310    6.841790   -0.111606
  H      1.207557    3.269045   -2.558977
  H      1.182471    1.022508   -1.433109
  H     -0.985704    2.730484    1.908771
  H     -0.958579    4.968120    0.801070
  H      0.550733   -1.644801   -1.186435
  H      2.645936   -2.887526   -1.803400
  H      4.535653   -1.499735    1.853367
  H      2.452250   -0.261190    2.454207
  H      5.759905   -3.430132    1.358750
  H      6.705302   -3.617717   -0.169218
  H      6.384935   -1.968710    0.495517
  H     -1.459278    0.184064   -1.503172
  H     -3.441491   -1.113813   -2.344028
  H     -3.851829   -2.993162    1.550647
  H     -1.875918   -1.706093    2.374203
  H     -6.008534   -3.198097    0.669351
  H     -4.912843   -4.538429    0.145026
  H     -6.355778   -4.106871   -0.852577

 Total Charge           Charge          ....    0
 Multiplicity           Mult            ....    1
 Number of Electrons    NEL             ....  194
 Basis Dimension        Dim             ....  938

ORBITAL ENERGIES
----------------

  NO   OCC          E(Eh)            E(eV)
   0   2.0000     -78.088161     -2124.8869
   1   2.0000     -19.666825      -535.1615
   2   2.0000     -19.666747      -535.1594
   3   2.0000     -19.666702      -535.1582
   4   2.0000     -19.557574      -532.1886
   5   2.0000     -10.617326      -288.9121
   6   2.0000     -10.617306      -288.9116
   7   2.0000     -10.617304      -288.9115
   8   2.0000     -10.602019      -288.4956
   9   2.0000     -10.602007      -288.4953
  10   2.0000     -10.601984      -288.4947
  11   2.0000     -10.559159      -287.3293
  12   2.0000     -10.559149      -287.3291
  13   2.0000     -10.559109      -287.3280
  14   2.0000     -10.555898      -287.2406
  15   2.0000     -10.555840      -287.2390
  16   2.0000     -10.555816      -287.2384
  17   2.0000     -10.551628      -287.1244
  18   2.0000     -10.551590      -287.1234
  19   2.0000     -10.551561      -287.1226
  20   2.0000     -10.549513      -287.0668
  21   2.0000     -10.549502      -287.0665
  22   2.0000     -10.549437      -287.0648
  23   2.0000     -10.546702      -286.9903
  24   2.0000     -10.546695      -286.9902
  25   2.0000     -10.546634      -286.9885
  26   2.0000      -6.894068      -187.5971
  27   2.0000      -5.011213      -136.3620
  28   2.0000      -5.011211      -136.3620
  29   2.0000      -5.009597      -136.3181
  30   2.0000      -1.199475       -32.6394
  31   2.0000      -1.199441       -32.6385
  32   2.0000      -1.199441       -32.6384
  33   2.0000      -1.053188       -28.6587
  34   2.0000      -0.960915       -26.1478
  35   2.0000      -0.956248       -26.0208
  36   2.0000      -0.956217       -26.0200
  37   2.0000      -0.869340       -23.6559
  38   2.0000      -0.856817       -23.3152
  39   2.0000      -0.856765       -23.3138
  40   2.0000      -0.850365       -23.1396
  41   2.0000      -0.844266       -22.9736
  42   2.0000      -0.844239       -22.9729
  43   2.0000      -0.801429       -21.8080
  44   2.0000      -0.788632       -21.4598
  45   2.0000      -0.788561       -21.4578
  46   2.0000      -0.716319       -19.4920
  47   2.0000      -0.697446       -18.9785
  48   2.0000      -0.696275       -18.9466
  49   2.0000      -0.696177       -18.9439
  50   2.0000      -0.673178       -18.3181
  51   2.0000      -0.673116       -18.3164
  52   2.0000      -0.633703       -17.2439
  53   2.0000      -0.614601       -16.7241
  54   2.0000      -0.614560       -16.7230
  55   2.0000      -0.609206       -16.5773
  56   2.0000      -0.564759       -15.3679
  57   2.0000      -0.564649       -15.3649
  58   2.0000      -0.564595       -15.3634
  59   2.0000      -0.554503       -15.0888
  60   2.0000      -0.554484       -15.0883
  61   2.0000      -0.554381       -15.0855
  62   2.0000      -0.544971       -14.8294
  63   2.0000      -0.544896       -14.8274
  64   2.0000      -0.522606       -14.2208
  65   2.0000      -0.518322       -14.1042
  66   2.0000      -0.518161       -14.0999
  67   2.0000      -0.494147       -13.4464
  68   2.0000      -0.491640       -13.3782
  69   2.0000      -0.491605       -13.3772
  70   2.0000      -0.490556       -13.3487
  71   2.0000      -0.484005       -13.1705
  72   2.0000      -0.483932       -13.1685
  73   2.0000      -0.481190       -13.0938
  74   2.0000      -0.455947       -12.4069
  75   2.0000      -0.455885       -12.4053
  76   2.0000      -0.451606       -12.2888
  77   2.0000      -0.437575       -11.9070
  78   2.0000      -0.437491       -11.9047
  79   2.0000      -0.435070       -11.8389
  80   2.0000      -0.419538       -11.4162
  81   2.0000      -0.419307       -11.4099
  82   2.0000      -0.419136       -11.4053
  83   2.0000      -0.396700       -10.7948
  84   2.0000      -0.396539       -10.7904
  85   2.0000      -0.396440       -10.7877
  86   2.0000      -0.393817       -10.7163
  87   2.0000      -0.393784       -10.7154
  88   2.0000      -0.390807       -10.6344
  89   2.0000      -0.329368        -8.9625
  90   2.0000      -0.329267        -8.9598
  91   2.0000      -0.316264        -8.6060
  92   2.0000      -0.314703        -8.5635
  93   2.0000      -0.314611        -8.5610
  94   2.0000      -0.287010        -7.8099
  95   2.0000      -0.286782        -7.8037
  96   2.0000      -0.277366        -7.5475
  97   0.0000       0.003389         0.0922
  98   0.0000       0.003694         0.1005
  99   0.0000       0.003879         0.1056
 100   0.0000       0.018519         0.5039
 101   0.0000       0.018777         0.5109

MULLIKEN ATOMIC CHARGES
-----------------------
   0 C :   -0.301731
   1 O :   -0.274721
   2 C :    0.298067
   3 C :   -0.209242
   4 C :   -0.170072
   5 C :   -0.113515
   6 C :   -0.166007
   7 C :   -0.229091
   8 P :    0.623568
   9 O :   -0.607549
  10 C :   -0.109923
  11 C :   -0.175359
  12 C :   -0.208206
  13 C :    0.296179
  14 C :   -0.230030
  15 C :   -0.164930
  16 O :   -0.274752
  17 C :   -0.302477
  18 C :   -0.107617
  19 C :   -0.175950
  20 C :   -0.209949
  21 C :    0.297674
  22 C :   -0.229353
  23 C :   -0.167756
  24 O :   -0.274548
  25 C :   -0.302487
  26 H :    0.156603
  27 H :    0.152177
  28 H :    0.153137
  29 H :    0.156475
  30 H :    0.195024
  31 H :    0.185208
  32 H :    0.163218
  33 H :    0.195780
  34 H :    0.157184
  35 H :    0.163514
  36 H :    0.185330
  37 H :    0.153357
  38 H :    0.156927
  39 H :    0.152291
  40 H :    0.195024
  41 H :    0.157063
  42 H :    0.163213
  43 H :    0.185918
  44 H :    0.152962
  45 H :    0.152487
  46 H :    0.156886
Sum of atomic charges:   -0.0000000

LOEWDIN ATOMIC CHARGES
----------------------
   0 C :   -0.336219
   1 O :    0.227970
   2 C :   -0.234786
   3 C :   -0.116792
   4 C :   -0.135343
   5 C :   -0.243955
   6 C :   -0.111922
   7 C :   -0.140545
   8 P :    0.675035
   9 O :   -0.315237
  10 C :   -0.243989
  11 C :   -0.135550
  12 C :   -0.116817
  13 C :   -0.234878
  14 C :   -0.140625
  15 C :   -0.111948
  16 O :    0.227990
  17 C :   -0.336233
  18 C :   -0.243949
  19 C :   -0.135665
  20 C :   -0.116809
  21 C :   -0.234757
  22 C :   -0.140584
  23 C :   -0.111998
  24 O :    0.228047
  25 C :   -0.336415
  26 H :    0.119819
  27 H :    0.113185
  28 H :    0.113406
  29 H :    0.154357
  30 H :    0.157289
  31 H :    0.161725
  32 H :    0.152214
  33 H :    0.157218
  34 H :    0.154381
  35 H :    0.152254
  36 H :    0.161727
  37 H :    0.113434
  38 H :    0.119805
  39 H :    0.113240
  40 H :    0.157141
  41 H :    0.154400
  42 H :    0.152201
  43 H :    0.161743
  44 H :    0.113383
  45 H :    0.113241
  46 H :    0.119813

  Mayer bond orders larger than 0.100000
B(  0-C ,  1-O ) :   0.9324 B(  0-C , 26-H ) :   0.9723 B(  0-C , 27-H ) :   0.9627
B(  0-C , 28-H ) :   0.9628 B(  1-O ,  2-C ) :   1.0970 B(  2-C ,  3-C ) :   1.3941
B(  2-C ,  7-C ) :   1.3441 B(  3-C ,  4-C ) :   1.5280 B(  3-C , 29-H ) :   0.9378
B(  4-C ,  5-C ) :   1.3005 B(  4-C , 30-H ) :   0.9142 B(  5-C ,  6-C ) :   1.4606
B(  5-C ,  8-P ) :   0.9329 B(  6-C ,  7-C ) :   1.4405 B(  6-C , 31-H ) :   0.8992
B(  7-C , 32-H ) :   0.9186 B(  8-P ,  9-O ) :   1.9342 B(  8-P , 10-C ) :   0.9316
B(  8-P , 18-C ) :   0.9323 B( 10-C , 11-C ) :   1.3008 B( 10-C , 15-C ) :   1.4618
B( 11-C , 12-C ) :   1.5322 B( 11-C , 33-H ) :   0.9136 B( 12-C , 13-C ) :   1.3959
B( 12-C , 34-H ) :   0.9364 B( 13-C , 14-C ) :   1.3438 B( 13-C , 16-O ) :   1.0971
B( 14-C , 15-C ) :   1.4403 B( 14-C , 35-H ) :   0.9184 B( 15-C , 36-H ) :   0.8983
B( 16-O , 17-C ) :   0.9321 B( 17-C , 37-H ) :   0.9629 B( 17-C , 38-H ) :   0.9723
B( 17-C , 39-H ) :   0.9627 B( 18-C , 19-C ) :   1.2978 B( 18-C , 23-C ) :   1.4635
B( 19-C , 20-C ) :   1.5298 B( 19-C , 40-H ) :   0.9149 B( 20-C , 21-C ) :   1.3942
B( 20-C , 41-H ) :   0.9375 B( 21-C , 22-C ) :   1.3445 B( 21-C , 24-O ) :   1.0973
B( 22-C , 23-C ) :   1.4406 B( 22-C , 42-H ) :   0.9184 B( 23-C , 43-H ) :   0.8981
B( 24-O , 25-C ) :   0.9324 B( 25-C , 44-H ) :   0.9628 B( 25-C , 45-H ) :   0.9627
B( 25-C , 46-H ) :   0.9723

Dispersion correction           -0.003140340
FINAL SINGLE POINT ENERGY     -1455.095285270032

DIPOLE MOMENT
-------------

Method             : SCF
Type of density    : Electron Density
Multiplicity       :   1
Irrep              :   0
Energy             : -1455.0921449301376924 Eh
Relativity type    :
Basis              : AO
                                X                 Y                 Z
Electronic contribution:     -0.073149996       0.280204712       2.242530495
Nuclear contribution   :      0.105465315      -0.365094269      -2.965310568
                        -----------------------------------------
Total Dipole Moment    :      0.032315319      -0.084889556      -0.722780073
                        -----------------------------------------
Magnitude (a.u.)       :      0.728465202
Magnitude (Debye)      :      1.851611394

Rotational constants in cm-1:             0.004984             0.004967             0.002862
Rotational constants in MHz :           149.429253           148.902328            85.809762

                             ****ORCA TERMINATED NORMALLY****
TOTAL RUN TIME: 0 days 0 hours 3 minutes 36 seconds 93 msec
