                         Program Version 6.0.0  -   RELEASE   -
|  1> ! RIJCOSX M062X def2-TZVP D3ZERO NormalSCF
|  2> %pal
|  3> nprocs 6
|  4> end
|  5>
|  6> * xyz 0 1
|  7>   C          -1.29021962962827      3.86457762320337      0.07100960299172
|  8>   C          -1.13071482794957      2.71572503086026     -0.71626043633471
|  9>   C          -0.18819415845123      1.72057143824686     -0.37151418125362
| 10>   C           0.61227275346705      1.91185069129894      0.77492423382250
| 11>   C           0.47393029157161      3.06352564703842      1.56524346179826
| 12>   C          -0.47948629268589      4.02422559557609      1.20389952336333
| 13>   F          -0.61683955585107      5.13166712765769      1.95911978784700
| 14>   P          -0.07943602975509      0.23664947278127     -1.47367493315270
| 15>   C           1.45905146865551     -0.56343656353345     -0.82629300158894
| 16>   C           2.68944475154520     -0.13371676250788     -1.37304362660560
| 17>   C           3.90564531481823     -0.66756713867178     -0.92517595757193
| 18>   C           3.88282250808393     -1.65811367942357      0.06705788932185
| 19>   C           2.67953732569224     -2.11774927905106      0.61780657969355
| 20>   C           1.47041392071665     -1.56361231763986      0.16905919655622
| 21>   F           5.04690162310628     -2.18300464229993      0.49752309079574
| 22>   C          -1.37851318899198     -0.85061319603276     -0.72736548665306
| 23>   C          -2.02502422071923     -0.58252091264572      0.49785315478463
| 24>   C          -2.99826998765502     -1.45824655558305      1.00435799796022
| 25>   C          -3.31717212849225     -2.61251310582331      0.27757862177937
| 26>   C          -2.69434877061743     -2.90695508819803     -0.94374487718498
| 27>   C          -1.73475641058864     -2.01591276690246     -1.44355107493766
| 28>   F          -4.24830167082063     -3.45862689181610      0.76042163807449
| 29>   H          -2.02253436600668      4.64394609701404     -0.18450395180171
| 30>   H          -1.75246664479732      2.58718867710019     -1.61689689722935
| 31>   H           1.35452329844884      1.15008254926774      1.05654087215965
| 32>   H           1.09355736754859      3.22655411895886      2.45900169282654
| 33>   H           2.69471896029037      0.63635947913386     -2.16121228324793
| 34>   H           4.86962318395326     -0.33809466642500     -1.33892282930055
| 35>   H           2.70319700508668     -2.89923509065677      1.39115682608256
| 36>   H           0.52209957482703     -1.91435742108512      0.60281482494344
| 37>   H          -1.76472706450938      0.32185659813066      1.06785701017611
| 38>   H          -3.51152136587306     -1.26032023369796      1.95660230053963
| 39>   H          -2.97670602702483     -3.81911774369395     -1.48894171938575
| 40>   H          -1.24850700739394     -2.23106909058052     -2.40872404926832
| 41> **                         ****END OF INPUT****

CARTESIAN COORDINATES (ANGSTROEM)
---------------------------------
  C     -1.290220    3.864578    0.071010
  C     -1.130715    2.715725   -0.716260
  C     -0.188194    1.720571   -0.371514
  C      0.612273    1.911851    0.774924
  C      0.473930    3.063526    1.565243
  C     -0.479486    4.024226    1.203900
  F     -0.616840    5.131667    1.959120
  P     -0.079436    0.236649   -1.473675
  C      1.459051   -0.563437   -0.826293
  C      2.689445   -0.133717   -1.373044
  C      3.905645   -0.667567   -0.925176
  C      3.882823   -1.658114    0.067058
  C      2.679537   -2.117749    0.617807
  C      1.470414   -1.563612    0.169059
  F      5.046902   -2.183005    0.497523
  C     -1.378513   -0.850613   -0.727365
  C     -2.025024   -0.582521    0.497853
  C     -2.998270   -1.458247    1.004358
  C     -3.317172   -2.612513    0.277579
  C     -2.694349   -2.906955   -0.943745
  C     -1.734756   -2.015913   -1.443551
  F     -4.248302   -3.458627    0.760422
  H     -2.022534    4.643946   -0.184504
  H     -1.752467    2.587189   -1.616897
  H      1.354523    1.150083    1.056541
  H      1.093557    3.226554    2.459002
  H      2.694719    0.636359   -2.161212
  H      4.869623   -0.338095   -1.338923
  H      2.703197   -2.899235    1.391157
  H      0.522100   -1.914357    0.602815
  H     -1.764727    0.321857    1.067857
  H     -3.511521   -1.260320    1.956602
  H     -2.976706   -3.819118   -1.488942
  H     -1.248507   -2.231069   -2.408724

 Total Charge           Charge          ....    0
 Multiplicity           Mult            ....    1
 Number of Electrons    NEL             ....  162
 Basis Dimension        Dim             ....  760

ORBITAL ENERGIES
----------------

  NO   OCC          E(Eh)            E(eV)
   0   2.0000     -78.044353     -2123.6948
   1   2.0000     -25.265884      -687.5197
   2   2.0000     -25.265872      -687.5193
   3   2.0000     -25.265749      -687.5160
   4   2.0000     -10.644188      -289.6431
   5   2.0000     -10.644183      -289.6430
   6   2.0000     -10.644102      -289.6407
   7   2.0000     -10.570954      -287.6503
   8   2.0000     -10.570896      -287.6487
   9   2.0000     -10.570881      -287.6483
  10   2.0000     -10.569179      -287.6020
  11   2.0000     -10.569116      -287.6003
  12   2.0000     -10.569114      -287.6002
  13   2.0000     -10.566502      -287.5291
  14   2.0000     -10.566479      -287.5285
  15   2.0000     -10.566462      -287.5281
  16   2.0000     -10.566427      -287.5271
  17   2.0000     -10.566404      -287.5265
  18   2.0000     -10.566393      -287.5262
  19   2.0000     -10.565846      -287.5113
  20   2.0000     -10.565820      -287.5106
  21   2.0000     -10.565775      -287.5094
  22   2.0000      -6.860224      -186.6762
  23   2.0000      -4.974855      -135.3727
  24   2.0000      -4.974426      -135.3610
  25   2.0000      -4.974422      -135.3609
  26   2.0000      -1.379694       -37.5434
  27   2.0000      -1.379676       -37.5429
  28   2.0000      -1.379592       -37.5406
  29   2.0000      -0.980093       -26.6697
  30   2.0000      -0.972427       -26.4611
  31   2.0000      -0.972378       -26.4598
  32   2.0000      -0.881213       -23.9790
  33   2.0000      -0.862893       -23.4805
  34   2.0000      -0.862853       -23.4794
  35   2.0000      -0.862505       -23.4699
  36   2.0000      -0.849548       -23.1174
  37   2.0000      -0.849491       -23.1158
  38   2.0000      -0.750188       -20.4136
  39   2.0000      -0.719736       -19.5850
  40   2.0000      -0.719651       -19.5827
  41   2.0000      -0.719480       -19.5781
  42   2.0000      -0.703757       -19.1502
  43   2.0000      -0.703734       -19.1496
  44   2.0000      -0.653773       -17.7901
  45   2.0000      -0.635000       -17.2792
  46   2.0000      -0.634974       -17.2785
  47   2.0000      -0.634384       -17.2625
  48   2.0000      -0.586161       -15.9502
  49   2.0000      -0.586112       -15.9489
  50   2.0000      -0.585977       -15.9452
  51   2.0000      -0.576579       -15.6895
  52   2.0000      -0.576540       -15.6885
  53   2.0000      -0.576463       -15.6864
  54   2.0000      -0.557915       -15.1816
  55   2.0000      -0.557848       -15.1798
  56   2.0000      -0.529367       -14.4048
  57   2.0000      -0.523469       -14.2443
  58   2.0000      -0.523435       -14.2434
  59   2.0000      -0.507820       -13.8185
  60   2.0000      -0.506487       -13.7822
  61   2.0000      -0.506467       -13.7817
  62   2.0000      -0.497950       -13.5499
  63   2.0000      -0.493254       -13.4221
  64   2.0000      -0.493213       -13.4210
  65   2.0000      -0.489236       -13.3128
  66   2.0000      -0.448805       -12.2126
  67   2.0000      -0.448678       -12.2091
  68   2.0000      -0.444626       -12.0989
  69   2.0000      -0.418486       -11.3876
  70   2.0000      -0.418432       -11.3861
  71   2.0000      -0.417385       -11.3576
  72   2.0000      -0.400089       -10.8870
  73   2.0000      -0.400020       -10.8851
  74   2.0000      -0.341679        -9.2976
  75   2.0000      -0.333735        -9.0814
  76   2.0000      -0.327339        -8.9073
  77   2.0000      -0.327323        -8.9069
  78   2.0000      -0.315411        -8.5828
  79   2.0000      -0.315192        -8.5768
  80   2.0000      -0.275985        -7.5099
  81   0.0000      -0.017468        -0.4753
  82   0.0000      -0.007767        -0.2113
  83   0.0000      -0.007570        -0.2060
  84   0.0000       0.005640         0.1535
  85   0.0000       0.005688         0.1548

MULLIKEN ATOMIC CHARGES
-----------------------
   0 C :   -0.217964
   1 C :   -0.128104
   2 C :   -0.111698
   3 C :   -0.122016
   4 C :   -0.236541
   5 C :    0.300304
   6 F :   -0.200030
   7 P :    0.121790
   8 C :   -0.111747
   9 C :   -0.125454
  10 C :   -0.219041
  11 C :    0.298323
  12 C :   -0.234620
  13 C :   -0.122552
  14 F :   -0.199875
  15 C :   -0.109624
  16 C :   -0.121971
  17 C :   -0.235004
  18 C :    0.299534
  19 C :   -0.218109
  20 C :   -0.128277
  21 F :   -0.200044
  22 H :    0.160608
  23 H :    0.163716
  24 H :    0.190626
  25 H :    0.160662
  26 H :    0.163270
  27 H :    0.160452
  28 H :    0.160586
  29 H :    0.189892
  30 H :    0.188743
  31 H :    0.160167
  32 H :    0.160348
  33 H :    0.163651
Sum of atomic charges:   -0.0000000

LOEWDIN ATOMIC CHARGES
----------------------
   0 C :   -0.120319
   1 C :   -0.133085
   2 C :   -0.283989
   3 C :   -0.129768
   4 C :   -0.120187
   5 C :   -0.249207
   6 F :    0.175888
   7 P :    0.698260
   8 C :   -0.284297
   9 C :   -0.132917
  10 C :   -0.120241
  11 C :   -0.249203
  12 C :   -0.120257
  13 C :   -0.129980
  14 F :    0.175826
  15 C :   -0.284177
  16 C :   -0.129893
  17 C :   -0.120176
  18 C :   -0.249220
  19 C :   -0.120346
  20 C :   -0.132972
  21 F :    0.175719
  22 H :    0.156946
  23 H :    0.153948
  24 H :    0.160355
  25 H :    0.156977
  26 H :    0.153958
  27 H :    0.157001
  28 H :    0.156969
  29 H :    0.160267
  30 H :    0.160162
  31 H :    0.156944
  32 H :    0.156979
  33 H :    0.154033

  Mayer bond orders larger than 0.100000
B(  0-C ,  1-C ) :   1.4027 B(  0-C ,  5-C ) :   1.4278 B(  0-C , 22-H ) :   0.9483
B(  1-C ,  2-C ) :   1.3976 B(  1-C , 23-H ) :   0.9261 B(  2-C ,  3-C ) :   1.3275
B(  2-C ,  7-P ) :   0.9290 B(  3-C ,  4-C ) :   1.4006 B(  3-C , 24-H ) :   0.9191
B(  4-C ,  5-C ) :   1.4365 B(  4-C , 25-H ) :   0.9456 B(  5-C ,  6-F ) :   0.9981
B(  7-P ,  8-C ) :   0.9281 B(  7-P , 15-C ) :   0.9283 B(  8-C ,  9-C ) :   1.3994
B(  8-C , 13-C ) :   1.3274 B(  9-C , 10-C ) :   1.4027 B(  9-C , 26-H ) :   0.9257
B( 10-C , 11-C ) :   1.4269 B( 10-C , 27-H ) :   0.9489 B( 11-C , 12-C ) :   1.4394
B( 11-C , 14-F ) :   0.9987 B( 12-C , 13-C ) :   1.4012 B( 12-C , 28-H ) :   0.9449
B( 13-C , 29-H ) :   0.9197 B( 15-C , 16-C ) :   1.3317 B( 15-C , 20-C ) :   1.3971
B( 16-C , 17-C ) :   1.4003 B( 16-C , 30-H ) :   0.9203 B( 17-C , 18-C ) :   1.4374
B( 17-C , 31-H ) :   0.9458 B( 18-C , 19-C ) :   1.4271 B( 18-C , 21-F ) :   0.9983
B( 19-C , 20-C ) :   1.4035 B( 19-C , 32-H ) :   0.9486 B( 20-C , 33-H ) :   0.9264

Dispersion correction           -0.002080426
FINAL SINGLE POINT ENERGY     -1334.003286209701

DIPOLE MOMENT
-------------

Method             : SCF
Type of density    : Electron Density
Multiplicity       :   1
Irrep              :   0
Energy             : -1334.0012057837275279 Eh
Relativity type    :
Basis              : AO
                                X                 Y                 Z
Electronic contribution:      0.128135872      -0.333556419       2.139045275
Nuclear contribution   :     -0.138333940       0.363649834      -2.332514991
                        -----------------------------------------
Total Dipole Moment    :     -0.010198068       0.030093416      -0.193469715
                        -----------------------------------------
Magnitude (a.u.)       :      0.196061585
Magnitude (Debye)      :      0.498348944

Rotational constants in cm-1:             0.007373             0.007331             0.004245
Rotational constants in MHz :           221.042361           219.767445           127.259250

                             ****ORCA TERMINATED NORMALLY****
TOTAL RUN TIME: 0 days 0 hours 2 minutes 8 seconds 980 msec
