                         Program Version 6.0.0  -   RELEASE   -
|  1> ! RIJCOSX M062X def2-TZVP D3ZERO NormalSCF
|  2> %pal
|  3> nprocs 6
|  4> end
|  5>
|  6> * xyz 0 1
|  7>   C          -1.32073542761707      4.94239528981315      1.33482249559325
|  8>   C          -0.51670436494956      4.14812092275357      2.17087967143384
|  9>   C           0.18596613444604      3.05435835533748      1.64423792693734
| 10>   C           0.10457079469106      2.73544203456762      0.27018736057566
| 11>   C          -0.70938632971792      3.53783904875992     -0.55700288161374
| 12>   C          -1.41455984920988      4.63310134734449     -0.03175898771199
| 13>   C           0.81453550567132      1.52526865002764     -0.27748618412041
| 14>   P          -0.02332432256119     -0.05241183320855      0.32877161923391
| 15>   C           0.88239252953244     -1.30185531718600     -0.75693761274326
| 16>   C           2.32393324992678     -1.41135205354954     -0.33480301961359
| 17>   C           2.66734967442857     -2.01881440521485      0.89376825846501
| 18>   C           4.00291217058803     -2.07604636238921      1.31848013632214
| 19>   C           5.02263440359418     -1.52124209251999      0.52557509188013
| 20>   C           4.69425275123504     -0.90980473445249     -0.69524620405725
| 21>   C           3.35625489394863     -0.85433062528638     -1.11879289164475
| 22>   C          -1.63167600519185      0.07472636435149     -0.65065841656245
| 23>   C          -2.40506028546884     -1.21404247362510     -0.55356991698438
| 24>   C          -2.48020466714884     -2.10105696757819     -1.64822015411385
| 25>   C          -3.15392768807517     -3.32842083348854     -1.53754177943442
| 26>   C          -3.76214022676579     -3.69219060657160     -0.32519175972942
| 27>   C          -3.69094910910296     -2.81931294424373      0.77450057375260
| 28>   C          -3.01664364483782     -1.59448614836292      0.66193978371508
| 29>   H          -1.87217834436115      5.80059430267734      1.74826335619280
| 30>   H          -0.43686234923511      4.38284808237646      3.24363555366891
| 31>   H           0.80681994741487      2.42854475973321      2.30473747425390
| 32>   H          -0.78566918514993      3.29976784964900     -1.63009954561297
| 33>   H          -2.04062658911933      5.24898338372879     -0.69578805237601
| 34>   H           0.83934681601153      1.54115449602134     -1.38805659042551
| 35>   H           1.86396934045857      1.47221702103554      0.08143086889385
| 36>   H           0.79658827775314     -1.01234299795459     -1.82611812066093
| 37>   H           0.34648649312391     -2.26561545102544     -0.62738976445749
| 38>   H           1.87003846246493     -2.44564008202569      1.52260937898997
| 39>   H           4.25070850067521     -2.55764645501701      2.27708382031641
| 40>   H           6.07067229976542     -1.56628001641792      0.85889554955962
| 41>   H           5.48496174970379     -0.47295797680119     -1.32466467188929
| 42>   H           3.10398022107354     -0.37431124646284     -2.07799512696164
| 43>   H          -2.19513823659738      0.92271264328301     -0.20768555438298
| 44>   H          -1.41283491005612      0.33312414005490     -1.70873187452113
| 45>   H          -2.00534235511227     -1.81994606085633     -2.60191127824346
| 46>   H          -3.20462325177545     -4.00397225550557     -2.40546606920971
| 47>   H          -4.29121554267985     -4.65331304055890     -0.23673979338259
| 48>   H          -4.16480618393159     -3.09585088505566      1.72909267822905
| 49>   H          -2.95376434784193     -0.91795482615672      1.52894465243977
| 50> **                         ****END OF INPUT****

CARTESIAN COORDINATES (ANGSTROEM)
---------------------------------
  C     -1.320735    4.942395    1.334822
  C     -0.516704    4.148121    2.170880
  C      0.185966    3.054358    1.644238
  C      0.104571    2.735442    0.270187
  C     -0.709386    3.537839   -0.557003
  C     -1.414560    4.633101   -0.031759
  C      0.814536    1.525269   -0.277486
  P     -0.023324   -0.052412    0.328772
  C      0.882393   -1.301855   -0.756938
  C      2.323933   -1.411352   -0.334803
  C      2.667350   -2.018814    0.893768
  C      4.002912   -2.076046    1.318480
  C      5.022634   -1.521242    0.525575
  C      4.694253   -0.909805   -0.695246
  C      3.356255   -0.854331   -1.118793
  C     -1.631676    0.074726   -0.650658
  C     -2.405060   -1.214042   -0.553570
  C     -2.480205   -2.101057   -1.648220
  C     -3.153928   -3.328421   -1.537542
  C     -3.762140   -3.692191   -0.325192
  C     -3.690949   -2.819313    0.774501
  C     -3.016644   -1.594486    0.661940
  H     -1.872178    5.800594    1.748263
  H     -0.436862    4.382848    3.243636
  H      0.806820    2.428545    2.304737
  H     -0.785669    3.299768   -1.630100
  H     -2.040627    5.248983   -0.695788
  H      0.839347    1.541154   -1.388057
  H      1.863969    1.472217    0.081431
  H      0.796588   -1.012343   -1.826118
  H      0.346486   -2.265615   -0.627390
  H      1.870038   -2.445640    1.522609
  H      4.250709   -2.557646    2.277084
  H      6.070672   -1.566280    0.858896
  H      5.484962   -0.472958   -1.324665
  H      3.103980   -0.374311   -2.077995
  H     -2.195138    0.922713   -0.207686
  H     -1.412835    0.333124   -1.708732
  H     -2.005342   -1.819946   -2.601911
  H     -3.204623   -4.003972   -2.405466
  H     -4.291216   -4.653313   -0.236740
  H     -4.164806   -3.095851    1.729093
  H     -2.953764   -0.917955    1.528945

 Total Charge           Charge          ....    0
 Multiplicity           Mult            ....    1
 Number of Electrons    NEL             ....  162
 Basis Dimension        Dim             ....  814

ORBITAL ENERGIES
----------------

  NO   OCC          E(Eh)            E(eV)
   0   2.0000     -78.027661     -2123.2406
   1   2.0000     -10.558697      -287.3168
   2   2.0000     -10.558616      -287.3145
   3   2.0000     -10.558541      -287.3125
   4   2.0000     -10.548327      -287.0346
   5   2.0000     -10.548253      -287.0326
   6   2.0000     -10.548225      -287.0318
   7   2.0000     -10.547825      -287.0209
   8   2.0000     -10.547757      -287.0191
   9   2.0000     -10.547694      -287.0174
  10   2.0000     -10.547596      -287.0147
  11   2.0000     -10.547528      -287.0128
  12   2.0000     -10.547465      -287.0111
  13   2.0000     -10.546946      -286.9970
  14   2.0000     -10.546887      -286.9954
  15   2.0000     -10.546839      -286.9941
  16   2.0000     -10.545542      -286.9588
  17   2.0000     -10.545483      -286.9572
  18   2.0000     -10.545418      -286.9554
  19   2.0000     -10.545081      -286.9462
  20   2.0000     -10.544992      -286.9438
  21   2.0000     -10.544955      -286.9428
  22   2.0000      -6.843258      -186.2145
  23   2.0000      -4.957232      -134.8932
  24   2.0000      -4.957204      -134.8924
  25   2.0000      -4.957201      -134.8923
  26   2.0000      -0.959932       -26.1211
  27   2.0000      -0.957013       -26.0417
  28   2.0000      -0.956940       -26.0396
  29   2.0000      -0.888345       -24.1731
  30   2.0000      -0.866014       -23.5654
  31   2.0000      -0.865959       -23.5639
  32   2.0000      -0.837953       -22.8019
  33   2.0000      -0.837862       -22.7994
  34   2.0000      -0.837816       -22.7981
  35   2.0000      -0.802745       -21.8438
  36   2.0000      -0.765394       -20.8274
  37   2.0000      -0.765342       -20.8260
  38   2.0000      -0.686990       -18.6939
  39   2.0000      -0.685804       -18.6617
  40   2.0000      -0.685744       -18.6601
  41   2.0000      -0.675557       -18.3828
  42   2.0000      -0.660049       -17.9608
  43   2.0000      -0.659966       -17.9586
  44   2.0000      -0.610353       -16.6086
  45   2.0000      -0.582145       -15.8410
  46   2.0000      -0.582049       -15.8384
  47   2.0000      -0.574810       -15.6414
  48   2.0000      -0.535948       -14.5839
  49   2.0000      -0.529758       -14.4154
  50   2.0000      -0.529744       -14.4151
  51   2.0000      -0.526050       -14.3145
  52   2.0000      -0.526010       -14.3135
  53   2.0000      -0.521018       -14.1776
  54   2.0000      -0.489481       -13.3195
  55   2.0000      -0.489445       -13.3185
  56   2.0000      -0.485134       -13.2012
  57   2.0000      -0.483361       -13.1529
  58   2.0000      -0.483305       -13.1514
  59   2.0000      -0.475984       -12.9522
  60   2.0000      -0.463415       -12.6101
  61   2.0000      -0.455633       -12.3984
  62   2.0000      -0.455475       -12.3941
  63   2.0000      -0.441830       -12.0228
  64   2.0000      -0.441663       -12.0183
  65   2.0000      -0.434779       -11.8309
  66   2.0000      -0.410662       -11.1747
  67   2.0000      -0.410597       -11.1729
  68   2.0000      -0.403261       -10.9733
  69   2.0000      -0.398707       -10.8494
  70   2.0000      -0.396156       -10.7800
  71   2.0000      -0.396127       -10.7792
  72   2.0000      -0.380887       -10.3645
  73   2.0000      -0.380837       -10.3631
  74   2.0000      -0.314545        -8.5592
  75   2.0000      -0.307584        -8.3698
  76   2.0000      -0.307489        -8.3672
  77   2.0000      -0.305811        -8.3215
  78   2.0000      -0.285056        -7.7568
  79   2.0000      -0.284947        -7.7538
  80   2.0000      -0.280160        -7.6235
  81   0.0000       0.010968         0.2984
  82   0.0000       0.011019         0.2998
  83   0.0000       0.011140         0.3031
  84   0.0000       0.019544         0.5318
  85   0.0000       0.021482         0.5846

MULLIKEN ATOMIC CHARGES
-----------------------
   0 C :   -0.157903
   1 C :   -0.139210
   2 C :   -0.195433
   3 C :    0.174044
   4 C :   -0.215924
   5 C :   -0.137157
   6 C :   -0.536349
   7 P :    0.240192
   8 C :   -0.535697
   9 C :    0.173896
  10 C :   -0.197885
  11 C :   -0.139167
  12 C :   -0.156992
  13 C :   -0.137198
  14 C :   -0.216280
  15 C :   -0.533616
  16 C :    0.173292
  17 C :   -0.217205
  18 C :   -0.137584
  19 C :   -0.157429
  20 C :   -0.139518
  21 C :   -0.195371
  22 H :    0.143519
  23 H :    0.143762
  24 H :    0.162416
  25 H :    0.153671
  26 H :    0.143154
  27 H :    0.174498
  28 H :    0.207172
  29 H :    0.174624
  30 H :    0.207522
  31 H :    0.162390
  32 H :    0.143859
  33 H :    0.143577
  34 H :    0.143312
  35 H :    0.153651
  36 H :    0.206474
  37 H :    0.174107
  38 H :    0.153943
  39 H :    0.143227
  40 H :    0.143622
  41 H :    0.143897
  42 H :    0.162097
Sum of atomic charges:   -0.0000000

LOEWDIN ATOMIC CHARGES
----------------------
   0 C :   -0.150800
   1 C :   -0.142731
   2 C :   -0.119458
   3 C :   -0.180888
   4 C :   -0.127186
   5 C :   -0.145668
   6 C :   -0.361907
   7 P :    0.597999
   8 C :   -0.361929
   9 C :   -0.180952
  10 C :   -0.119587
  11 C :   -0.142719
  12 C :   -0.150726
  13 C :   -0.145717
  14 C :   -0.127228
  15 C :   -0.361791
  16 C :   -0.180917
  17 C :   -0.127217
  18 C :   -0.145653
  19 C :   -0.150708
  20 C :   -0.142703
  21 C :   -0.119522
  22 H :    0.146046
  23 H :    0.147402
  24 H :    0.152434
  25 H :    0.148145
  26 H :    0.146976
  27 H :    0.136748
  28 H :    0.151584
  29 H :    0.136812
  30 H :    0.151654
  31 H :    0.152412
  32 H :    0.147404
  33 H :    0.146071
  34 H :    0.146966
  35 H :    0.148192
  36 H :    0.151295
  37 H :    0.136809
  38 H :    0.148162
  39 H :    0.146982
  40 H :    0.146072
  41 H :    0.147415
  42 H :    0.152424

  Mayer bond orders larger than 0.100000
B(  0-C ,  1-C ) :   1.4308 B(  0-C ,  5-C ) :   1.4474 B(  0-C , 22-H ) :   0.9467
B(  1-C ,  2-C ) :   1.4762 B(  1-C , 23-H ) :   0.9487 B(  2-C ,  3-C ) :   1.3897
B(  2-C , 24-H ) :   0.9276 B(  3-C ,  4-C ) :   1.3625 B(  3-C ,  6-C ) :   0.8894
B(  4-C ,  5-C ) :   1.4712 B(  4-C , 25-H ) :   0.9417 B(  5-C , 26-H ) :   0.9482
B(  6-C ,  7-P ) :   0.9359 B(  6-C , 27-H ) :   0.9693 B(  6-C , 28-H ) :   0.9341
B(  7-P ,  8-C ) :   0.9359 B(  7-P , 15-C ) :   0.9360 B(  8-C ,  9-C ) :   0.8886
B(  8-C , 29-H ) :   0.9688 B(  8-C , 30-H ) :   0.9341 B(  9-C , 10-C ) :   1.3886
B(  9-C , 14-C ) :   1.3635 B( 10-C , 11-C ) :   1.4759 B( 10-C , 31-H ) :   0.9283
B( 11-C , 12-C ) :   1.4307 B( 11-C , 32-H ) :   0.9488 B( 12-C , 13-C ) :   1.4468
B( 12-C , 33-H ) :   0.9467 B( 13-C , 14-C ) :   1.4704 B( 13-C , 34-H ) :   0.9484
B( 14-C , 35-H ) :   0.9422 B( 15-C , 16-C ) :   0.8890 B( 15-C , 36-H ) :   0.9344
B( 15-C , 37-H ) :   0.9691 B( 16-C , 17-C ) :   1.3633 B( 16-C , 21-C ) :   1.3894
B( 17-C , 18-C ) :   1.4717 B( 17-C , 38-H ) :   0.9420 B( 18-C , 19-C ) :   1.4471
B( 18-C , 39-H ) :   0.9481 B( 19-C , 20-C ) :   1.4318 B( 19-C , 40-H ) :   0.9467
B( 20-C , 21-C ) :   1.4751 B( 20-C , 41-H ) :   0.9489 B( 21-C , 42-H ) :   0.9278

Dispersion correction           -0.002840352
FINAL SINGLE POINT ENERGY     -1154.173305519422

DIPOLE MOMENT
-------------

Method             : SCF
Type of density    : Electron Density
Multiplicity       :   1
Irrep              :   0
Energy             : -1154.1704651669545001 Eh
Relativity type    :
Basis              : AO
                                X                 Y                 Z
Electronic contribution:     -0.148089551      -0.455563961       2.705417669
Nuclear contribution   :      0.162263221       0.503245305      -3.002504063
                        -----------------------------------------
Total Dipole Moment    :      0.014173671       0.047681344      -0.297086393
                        -----------------------------------------
Magnitude (a.u.)       :      0.301222058
Magnitude (Debye)      :      0.765645626

Rotational constants in cm-1:             0.007306             0.007253             0.004118
Rotational constants in MHz :           219.038638           217.450487           123.445875

                             ****ORCA TERMINATED NORMALLY****
TOTAL RUN TIME: 0 days 0 hours 2 minutes 48 seconds 474 msec
