                         Program Version 6.0.0  -   RELEASE   -
|  1> ! RIJCOSX M062X def2-TZVP D3ZERO NormalSCF
|  2> %pal
|  3> nprocs 6
|  4> end
|  5>
|  6> * xyz 0 1
|  7>   C          -2.70757169923418     -2.62136543233322      2.02882187562075
|  8>   C          -1.86436961000812     -2.72471855382632      0.78014907876854
|  9>   C          -1.32501720366540     -1.56936936572184      0.17727597463823
| 10>   C          -0.56807685277993     -1.65609963059641     -1.00618377401282
| 11>   C          -0.35649774532177     -2.90566091628764     -1.62131806578027
| 12>   C          -0.88553399163817     -4.06099536986720     -1.02797778331018
| 13>   C          -1.62538292672226     -3.97065451453146      0.16246378252338
| 14>   P           0.19774198760547     -0.20236728792574     -1.81822579282828
| 15>   O           0.36148521700684     -0.36860559430577     -3.31924571474858
| 16>   C           1.78447841749872      0.06475385533989     -0.94134273428601
| 17>   C           2.81218877435148      0.68846907755885     -1.67567059563376
| 18>   C           4.03787489530655      0.95616277429277     -1.04903413254974
| 19>   C           4.23966710828199      0.59830439817083      0.29401190079156
| 20>   C           3.22801042148624     -0.04585473885133      1.03753769393082
| 21>   C           1.99804135011746     -0.30778253468655      0.39895444435123
| 22>   C           3.46478559813552     -0.47956023540612      2.46469924020801
| 23>   C          -0.85675068908683      1.22421146338024     -1.35752313659414
| 24>   C          -1.83751480870865      1.61037200905033     -2.29198450071210
| 25>   C          -2.69886143472704      2.67318818014847     -1.98298470913516
| 26>   C          -2.57795218378548      3.34955785028905     -0.75807809625934
| 27>   C          -1.58746556678850      2.98882608652152      0.18010833595257
| 28>   C          -0.72883772075804      1.91649260193072     -0.13868196128750
| 29>   C          -1.42120373361043      3.75294225542383      1.47217928720126
| 30>   H          -2.40152849258540     -1.76269078782879      2.65896922336110
| 31>   H          -3.77870984891207     -2.47087598194815      1.77228878131654
| 32>   H          -2.64493191316319     -3.54182309138183      2.64251961560771
| 33>   H          -1.51466126928385     -0.58449425901603      0.63378949563928
| 34>   H           0.21212965243788     -2.95033090692466     -2.56270651484483
| 35>   H          -0.72261852824858     -5.04335336935258     -1.49767379018968
| 36>   H          -2.03474337636990     -4.88558567232227      0.62023616255910
| 37>   H           2.63634005035717      0.94517009702931     -2.73146951983050
| 38>   H           4.84672508144252      1.44710262011448     -1.61200898645962
| 39>   H           5.20642631028196      0.81534733771344      0.77617989213624
| 40>   H           1.20029127655359     -0.82520454589917      0.95594906947864
| 41>   H           4.19094988775408      0.18157484411766      2.97798548407425
| 42>   H           3.87762261643372     -1.51101641529786      2.50240482864864
| 43>   H           2.52470557421256     -0.48433579890763      3.05130393609055
| 44>   H          -1.90203795906734      1.07623663764223     -3.25221973096104
| 45>   H          -3.47197753597571      2.98071232698048     -2.70403753899740
| 46>   H          -3.26092736115021      4.18247835179560     -0.52576582465429
| 47>   H           0.06311646402059      1.62998394799771      0.57205302088634
| 48>   H          -0.71413106122586      4.60094076889931      1.34278306393218
| 49>   H          -2.38217484834040      4.17964562217938      1.82193586250754
| 50>   H          -1.01310132212702      3.11027189664245      2.27734785285079
| 51> **                         ****END OF INPUT****

CARTESIAN COORDINATES (ANGSTROEM)
---------------------------------
  C     -2.707572   -2.621365    2.028822
  C     -1.864370   -2.724719    0.780149
  C     -1.325017   -1.569369    0.177276
  C     -0.568077   -1.656100   -1.006184
  C     -0.356498   -2.905661   -1.621318
  C     -0.885534   -4.060995   -1.027978
  C     -1.625383   -3.970655    0.162464
  P      0.197742   -0.202367   -1.818226
  O      0.361485   -0.368606   -3.319246
  C      1.784478    0.064754   -0.941343
  C      2.812189    0.688469   -1.675671
  C      4.037875    0.956163   -1.049034
  C      4.239667    0.598304    0.294012
  C      3.228010   -0.045855    1.037538
  C      1.998041   -0.307783    0.398954
  C      3.464786   -0.479560    2.464699
  C     -0.856751    1.224211   -1.357523
  C     -1.837515    1.610372   -2.291985
  C     -2.698861    2.673188   -1.982985
  C     -2.577952    3.349558   -0.758078
  C     -1.587466    2.988826    0.180108
  C     -0.728838    1.916493   -0.138682
  C     -1.421204    3.752942    1.472179
  H     -2.401528   -1.762691    2.658969
  H     -3.778710   -2.470876    1.772289
  H     -2.644932   -3.541823    2.642520
  H     -1.514661   -0.584494    0.633789
  H      0.212130   -2.950331   -2.562707
  H     -0.722619   -5.043353   -1.497674
  H     -2.034743   -4.885586    0.620236
  H      2.636340    0.945170   -2.731470
  H      4.846725    1.447103   -1.612009
  H      5.206426    0.815347    0.776180
  H      1.200291   -0.825205    0.955949
  H      4.190950    0.181575    2.977985
  H      3.877623   -1.511016    2.502405
  H      2.524706   -0.484336    3.051304
  H     -1.902038    1.076237   -3.252220
  H     -3.471978    2.980712   -2.704038
  H     -3.260927    4.182478   -0.525766
  H      0.063116    1.629984    0.572053
  H     -0.714131    4.600941    1.342783
  H     -2.382175    4.179646    1.821936
  H     -1.013101    3.110272    2.277348

 Total Charge           Charge          ....    0
 Multiplicity           Mult            ....    1
 Number of Electrons    NEL             ....  170
 Basis Dimension        Dim             ....  845

ORBITAL ENERGIES
----------------

  NO   OCC          E(Eh)            E(eV)
   0   2.0000     -78.092795     -2125.0130
   1   2.0000     -19.562389      -532.3197
   2   2.0000     -10.563735      -287.4538
   3   2.0000     -10.563693      -287.4527
   4   2.0000     -10.563656      -287.4517
   5   2.0000     -10.556555      -287.2585
   6   2.0000     -10.556508      -287.2572
   7   2.0000     -10.556473      -287.2562
   8   2.0000     -10.555392      -287.2268
   9   2.0000     -10.555371      -287.2262
  10   2.0000     -10.555278      -287.2237
  11   2.0000     -10.554149      -287.1930
  12   2.0000     -10.554130      -287.1925
  13   2.0000     -10.554089      -287.1914
  14   2.0000     -10.553023      -287.1624
  15   2.0000     -10.553022      -287.1623
  16   2.0000     -10.552992      -287.1615
  17   2.0000     -10.551984      -287.1341
  18   2.0000     -10.551961      -287.1335
  19   2.0000     -10.551919      -287.1323
  20   2.0000     -10.546010      -286.9715
  21   2.0000     -10.545978      -286.9707
  22   2.0000     -10.545951      -286.9699
  23   2.0000      -6.899035      -187.7323
  24   2.0000      -5.016166      -136.4968
  25   2.0000      -5.016154      -136.4965
  26   2.0000      -5.014446      -136.4500
  27   2.0000      -1.058101       -28.7924
  28   2.0000      -0.967237       -26.3199
  29   2.0000      -0.962739       -26.1975
  30   2.0000      -0.962724       -26.1971
  31   2.0000      -0.879896       -23.9432
  32   2.0000      -0.873357       -23.7652
  33   2.0000      -0.873321       -23.7643
  34   2.0000      -0.860210       -23.4075
  35   2.0000      -0.841190       -22.8899
  36   2.0000      -0.841177       -22.8896
  37   2.0000      -0.780511       -21.2388
  38   2.0000      -0.779597       -21.2139
  39   2.0000      -0.779579       -21.2134
  40   2.0000      -0.732495       -19.9322
  41   2.0000      -0.691126       -18.8065
  42   2.0000      -0.691059       -18.8047
  43   2.0000      -0.682877       -18.5820
  44   2.0000      -0.662107       -18.0168
  45   2.0000      -0.662049       -18.0153
  46   2.0000      -0.615884       -16.7590
  47   2.0000      -0.585257       -15.9257
  48   2.0000      -0.585202       -15.9241
  49   2.0000      -0.571785       -15.5591
  50   2.0000      -0.537875       -14.6363
  51   2.0000      -0.537789       -14.6340
  52   2.0000      -0.537747       -14.6328
  53   2.0000      -0.519685       -14.1414
  54   2.0000      -0.519589       -14.1387
  55   2.0000      -0.508318       -13.8320
  56   2.0000      -0.494962       -13.4686
  57   2.0000      -0.494879       -13.4663
  58   2.0000      -0.491657       -13.3787
  59   2.0000      -0.481779       -13.1099
  60   2.0000      -0.481683       -13.1073
  61   2.0000      -0.477692       -12.9987
  62   2.0000      -0.476427       -12.9642
  63   2.0000      -0.476379       -12.9629
  64   2.0000      -0.456887       -12.4325
  65   2.0000      -0.452916       -12.3245
  66   2.0000      -0.452904       -12.3241
  67   2.0000      -0.449234       -12.2243
  68   2.0000      -0.431074       -11.7301
  69   2.0000      -0.430978       -11.7275
  70   2.0000      -0.424930       -11.5629
  71   2.0000      -0.411396       -11.1947
  72   2.0000      -0.406659       -11.0658
  73   2.0000      -0.406595       -11.0640
  74   2.0000      -0.400715       -10.9040
  75   2.0000      -0.398391       -10.8408
  76   2.0000      -0.398283       -10.8378
  77   2.0000      -0.334317        -9.0972
  78   2.0000      -0.334240        -9.0951
  79   2.0000      -0.315628        -8.5887
  80   2.0000      -0.315476        -8.5845
  81   2.0000      -0.310811        -8.4576
  82   2.0000      -0.301812        -8.2127
  83   2.0000      -0.301722        -8.2103
  84   2.0000      -0.300948        -8.1892
  85   0.0000      -0.008238        -0.2242
  86   0.0000      -0.007966        -0.2168
  87   0.0000       0.002865         0.0780
  88   0.0000       0.003986         0.1085
  89   0.0000       0.017284         0.4703

MULLIKEN ATOMIC CHARGES
-----------------------
   0 C :   -0.483696
   1 C :    0.126636
   2 C :   -0.261769
   3 C :   -0.069337
   4 C :   -0.167882
   5 C :   -0.133555
   6 C :   -0.163930
   7 P :    0.625968
   8 O :   -0.598626
   9 C :   -0.065972
  10 C :   -0.168384
  11 C :   -0.132663
  12 C :   -0.164212
  13 C :    0.126148
  14 C :   -0.264193
  15 C :   -0.482951
  16 C :   -0.063842
  17 C :   -0.169057
  18 C :   -0.132755
  19 C :   -0.164493
  20 C :    0.128206
  21 C :   -0.269266
  22 C :   -0.483886
  23 H :    0.144924
  24 H :    0.165025
  25 H :    0.147358
  26 H :    0.211146
  27 H :    0.183567
  28 H :    0.147195
  29 H :    0.144961
  30 H :    0.182814
  31 H :    0.147440
  32 H :    0.145126
  33 H :    0.210975
  34 H :    0.147548
  35 H :    0.164815
  36 H :    0.144744
  37 H :    0.183560
  38 H :    0.147794
  39 H :    0.145315
  40 H :    0.211853
  41 H :    0.164988
  42 H :    0.147681
  43 H :    0.144682
Sum of atomic charges:   -0.0000000

LOEWDIN ATOMIC CHARGES
----------------------
   0 C :   -0.266940
   1 C :   -0.168925
   2 C :   -0.114868
   3 C :   -0.227653
   4 C :   -0.119602
   5 C :   -0.135023
   6 C :   -0.109462
   7 P :    0.688643
   8 O :   -0.308550
   9 C :   -0.227534
  10 C :   -0.119561
  11 C :   -0.135065
  12 C :   -0.109439
  13 C :   -0.168885
  14 C :   -0.115012
  15 C :   -0.266904
  16 C :   -0.227584
  17 C :   -0.119588
  18 C :   -0.135037
  19 C :   -0.109379
  20 C :   -0.168920
  21 C :   -0.115155
  22 C :   -0.266940
  23 H :    0.130757
  24 H :    0.137019
  25 H :    0.131211
  26 H :    0.157503
  27 H :    0.159927
  28 H :    0.149508
  29 H :    0.149934
  30 H :    0.159907
  31 H :    0.149494
  32 H :    0.149961
  33 H :    0.157422
  34 H :    0.131279
  35 H :    0.136954
  36 H :    0.130728
  37 H :    0.159979
  38 H :    0.149469
  39 H :    0.149975
  40 H :    0.157349
  41 H :    0.137037
  42 H :    0.131295
  43 H :    0.130672

  Mayer bond orders larger than 0.100000
B(  0-C ,  1-C ) :   0.9124 B(  0-C , 23-H ) :   0.9862 B(  0-C , 24-H ) :   0.9492
B(  0-C , 25-H ) :   0.9797 B(  1-C ,  2-C ) :   1.4369 B(  1-C ,  6-C ) :   1.4166
B(  2-C ,  3-C ) :   1.3483 B(  2-C , 26-H ) :   0.8909 B(  3-C ,  4-C ) :   1.4422
B(  3-C ,  7-P ) :   0.9199 B(  4-C ,  5-C ) :   1.4386 B(  4-C , 27-H ) :   0.9075
B(  5-C ,  6-C ) :   1.4470 B(  5-C , 28-H ) :   0.9502 B(  6-C , 29-H ) :   0.9372
B(  7-P ,  8-O ) :   1.9484 B(  7-P ,  9-C ) :   0.9191 B(  7-P , 16-C ) :   0.9197
B(  9-C , 10-C ) :   1.4405 B(  9-C , 14-C ) :   1.3485 B( 10-C , 11-C ) :   1.4389
B( 10-C , 30-H ) :   0.9081 B( 11-C , 12-C ) :   1.4476 B( 11-C , 31-H ) :   0.9496
B( 12-C , 13-C ) :   1.4159 B( 12-C , 32-H ) :   0.9372 B( 13-C , 14-C ) :   1.4376
B( 13-C , 15-C ) :   0.9122 B( 14-C , 33-H ) :   0.8910 B( 15-C , 34-H ) :   0.9795
B( 15-C , 35-H ) :   0.9493 B( 15-C , 36-H ) :   0.9861 B( 16-C , 17-C ) :   1.4427
B( 16-C , 21-C ) :   1.3455 B( 17-C , 18-C ) :   1.4381 B( 17-C , 37-H ) :   0.9075
B( 18-C , 19-C ) :   1.4475 B( 18-C , 38-H ) :   0.9495 B( 19-C , 20-C ) :   1.4156
B( 19-C , 39-H ) :   0.9372 B( 20-C , 21-C ) :   1.4393 B( 20-C , 22-C ) :   0.9119
B( 21-C , 40-H ) :   0.8904 B( 22-C , 41-H ) :   0.9489 B( 22-C , 42-H ) :   0.9797
B( 22-C , 43-H ) :   0.9863

Dispersion correction           -0.003375969
FINAL SINGLE POINT ENERGY     -1229.445216216634

DIPOLE MOMENT
-------------

Method             : SCF
Type of density    : Electron Density
Multiplicity       :   1
Irrep              :   0
Energy             : -1229.4418402478945609 Eh
Relativity type    :
Basis              : AO
                                X                 Y                 Z
Electronic contribution:      1.968851340      -1.983394012     -17.918784331
Nuclear contribution   :     -2.192890446       2.214065876      19.973562992
                        -----------------------------------------
Total Dipole Moment    :     -0.224039106       0.230671864       2.054778661
                        -----------------------------------------
Magnitude (a.u.)       :      2.079788060
Magnitude (Debye)      :      5.286401131

Rotational constants in cm-1:             0.007608             0.007601             0.005557
Rotational constants in MHz :           228.075918           227.858778           166.596510

                             ****ORCA TERMINATED NORMALLY****
TOTAL RUN TIME: 0 days 0 hours 3 minutes 2 seconds 846 msec
