                         Program Version 6.0.0  -   RELEASE   -
|  1> ! RIJCOSX M062X def2-TZVP D3ZERO NormalSCF
|  2> %pal
|  3> nprocs 6
|  4> end
|  5>
|  6> * xyz 0 1
|  7>   C          -4.02317625848676     -0.94603054126597     -0.96194960656100
|  8>   C          -2.61070586300170     -0.43425869013355     -1.25831688738439
|  9>   C          -1.56056966866524     -0.95236726897399     -0.26510351545479
| 10>   P           0.15703991069505     -0.53543968468760     -0.79497657295769
| 11>   O           0.49048921920558     -1.01186915646330     -2.19861796450542
| 12>   C           0.31633833864906      1.29757529534185     -0.61693165337559
| 13>   C           0.02639752244216      1.90663172171363      0.76063440653666
| 14>   C           0.16868326403853      3.43295557225560      0.77685163787622
| 15>   C           1.23838297704238     -1.26971670285032      0.50750384868053
| 16>   C           2.72848135350409     -1.04108659247516      0.21600831126073
| 17>   C           3.65116501052750     -1.80199001368125      1.17260093970190
| 18>   H          -4.36402495180788     -0.63933209344501      0.04951964678428
| 19>   H          -4.06453749586208     -2.05472540276344     -1.00296152845724
| 20>   H          -4.75784065675279     -0.55667990907375     -1.69592489168139
| 21>   H          -2.60832429885198      0.67808138410368     -1.25370642938829
| 22>   H          -2.29492398496375     -0.73512937357081     -2.27994945735012
| 23>   H          -1.59234619658670     -2.06308232686545     -0.21728452172159
| 24>   H          -1.74216782084128     -0.57933577740468      0.76665990484739
| 25>   H          -0.35164221021387      1.72528761031817     -1.39592230301135
| 26>   H           1.34914195800437      1.53370953558843     -0.95364447276416
| 27>   H           0.71157331186670      1.46393724755574      1.51628997292599
| 28>   H          -1.00064525931292      1.62954341175837      1.08481322433406
| 29>   H          -0.52913839826462      3.90819046070133      0.05625745538223
| 30>   H           1.19640293486358      3.74381951263082      0.49549175568157
| 31>   H          -0.04695496314714      3.85215595563257      1.78079571306512
| 32>   H           1.00844547443694     -2.35789245210172      0.50234403785964
| 33>   H           0.94688318941862     -0.88302812598006      1.50872565104552
| 34>   H           2.92339621928780     -1.34279573031676     -0.83502652909612
| 35>   H           2.95481104072096      0.04694455862991      0.26781359527168
| 36>   H           3.47754211204085     -2.89677585294228      1.11108180951219
| 37>   H           4.71941505799760     -1.61864873023539      0.93751359802295
| 38>   H           3.48240713201693     -1.49864684099960      2.22747982492050
| 39> **                         ****END OF INPUT****

CARTESIAN COORDINATES (ANGSTROEM)
---------------------------------
  C     -4.023176   -0.946031   -0.961950
  C     -2.610706   -0.434259   -1.258317
  C     -1.560570   -0.952367   -0.265104
  P      0.157040   -0.535440   -0.794977
  O      0.490489   -1.011869   -2.198618
  C      0.316338    1.297575   -0.616932
  C      0.026398    1.906632    0.760634
  C      0.168683    3.432956    0.776852
  C      1.238383   -1.269717    0.507504
  C      2.728481   -1.041087    0.216008
  C      3.651165   -1.801990    1.172601
  H     -4.364025   -0.639332    0.049520
  H     -4.064537   -2.054725   -1.002962
  H     -4.757841   -0.556680   -1.695925
  H     -2.608324    0.678081   -1.253706
  H     -2.294924   -0.735129   -2.279949
  H     -1.592346   -2.063082   -0.217285
  H     -1.742168   -0.579336    0.766660
  H     -0.351642    1.725288   -1.395922
  H      1.349142    1.533710   -0.953644
  H      0.711573    1.463937    1.516290
  H     -1.000645    1.629543    1.084813
  H     -0.529138    3.908190    0.056257
  H      1.196403    3.743820    0.495492
  H     -0.046955    3.852156    1.780796
  H      1.008445   -2.357892    0.502344
  H      0.946883   -0.883028    1.508726
  H      2.923396   -1.342796   -0.835027
  H      2.954811    0.046945    0.267814
  H      3.477542   -2.896776    1.111082
  H      4.719415   -1.618649    0.937514
  H      3.482407   -1.498647    2.227480

 Total Charge           Charge          ....    0
 Multiplicity           Mult            ....    1
 Number of Electrons    NEL             ....   98
 Basis Dimension        Dim             ....  473

ORBITAL ENERGIES
----------------

  NO   OCC          E(Eh)            E(eV)
   0   2.0000     -78.081064     -2124.6938
   1   2.0000     -19.554278      -532.0989
   2   2.0000     -10.556165      -287.2479
   3   2.0000     -10.547616      -287.0152
   4   2.0000     -10.547558      -287.0136
   5   2.0000     -10.547439      -287.0104
   6   2.0000     -10.545383      -286.9545
   7   2.0000     -10.545347      -286.9535
   8   2.0000     -10.540718      -286.8275
   9   2.0000     -10.534218      -286.6506
  10   2.0000     -10.534180      -286.6496
  11   2.0000      -6.887881      -187.4288
  12   2.0000      -5.004839      -136.1886
  13   2.0000      -5.004829      -136.1883
  14   2.0000      -5.003139      -136.1423
  15   2.0000      -1.049941       -28.5704
  16   2.0000      -0.904469       -24.6118
  17   2.0000      -0.886425       -24.1208
  18   2.0000      -0.886369       -24.1193
  19   2.0000      -0.811789       -22.0899
  20   2.0000      -0.777463       -21.1558
  21   2.0000      -0.773878       -21.0583
  22   2.0000      -0.689741       -18.7688
  23   2.0000      -0.686811       -18.6891
  24   2.0000      -0.667523       -18.1642
  25   2.0000      -0.601311       -16.3625
  26   2.0000      -0.553182       -15.0529
  27   2.0000      -0.546899       -14.8819
  28   2.0000      -0.532984       -14.5032
  29   2.0000      -0.508535       -13.8379
  30   2.0000      -0.504491       -13.7279
  31   2.0000      -0.489352       -13.3159
  32   2.0000      -0.482209       -13.1216
  33   2.0000      -0.481114       -13.0918
  34   2.0000      -0.457646       -12.4532
  35   2.0000      -0.455572       -12.3967
  36   2.0000      -0.449152       -12.2221
  37   2.0000      -0.446932       -12.1616
  38   2.0000      -0.425825       -11.5873
  39   2.0000      -0.415682       -11.3113
  40   2.0000      -0.408264       -11.1094
  41   2.0000      -0.406245       -11.0545
  42   2.0000      -0.404029       -10.9942
  43   2.0000      -0.394192       -10.7265
  44   2.0000      -0.393390       -10.7047
  45   2.0000      -0.391600       -10.6560
  46   2.0000      -0.383012       -10.4223
  47   2.0000      -0.319435        -8.6923
  48   2.0000      -0.317141        -8.6298
  49   0.0000       0.042137         1.1466
  50   0.0000       0.065675         1.7871
  51   0.0000       0.066449         1.8082
  52   0.0000       0.084021         2.2863
  53   0.0000       0.092721         2.5231

MULLIKEN ATOMIC CHARGES
-----------------------
   0 C :   -0.423537
   1 C :   -0.265840
   2 C :   -0.415026
   3 P :    0.710546
   4 O :   -0.596968
   5 C :   -0.485625
   6 C :   -0.257221
   7 C :   -0.419777
   8 C :   -0.417782
   9 C :   -0.264646
  10 C :   -0.423475
  11 H :    0.133676
  12 H :    0.142160
  13 H :    0.146554
  14 H :    0.133692
  15 H :    0.178848
  16 H :    0.170625
  17 H :    0.171844
  18 H :    0.191674
  19 H :    0.192656
  20 H :    0.144576
  21 H :    0.144998
  22 H :    0.142032
  23 H :    0.142469
  24 H :    0.145434
  25 H :    0.170586
  26 H :    0.173035
  27 H :    0.178688
  28 H :    0.133444
  29 H :    0.142036
  30 H :    0.146692
  31 H :    0.133631
Sum of atomic charges:   -0.0000000

LOEWDIN ATOMIC CHARGES
----------------------
   0 C :   -0.323274
   1 C :   -0.320291
   2 C :   -0.375991
   3 P :    0.568543
   4 O :   -0.330420
   5 C :   -0.375623
   6 C :   -0.323647
   7 C :   -0.320036
   8 C :   -0.376156
   9 C :   -0.320109
  10 C :   -0.323263
  11 H :    0.120924
  12 H :    0.123830
  13 H :    0.124170
  14 H :    0.136198
  15 H :    0.150040
  16 H :    0.146774
  17 H :    0.136715
  18 H :    0.147603
  19 H :    0.147858
  20 H :    0.137815
  21 H :    0.137651
  22 H :    0.124167
  23 H :    0.124259
  24 H :    0.123527
  25 H :    0.146663
  26 H :    0.136994
  27 H :    0.149959
  28 H :    0.136259
  29 H :    0.123775
  30 H :    0.124151
  31 H :    0.120936

  Mayer bond orders larger than 0.100000
B(  0-C ,  1-C ) :   0.9445 B(  0-C , 11-H ) :   0.9718 B(  0-C , 12-H ) :   0.9756
B(  0-C , 13-H ) :   0.9797 B(  1-C ,  2-C ) :   0.9062 B(  1-C , 14-H ) :   0.9703
B(  1-C , 15-H ) :   0.9656 B(  2-C ,  3-P ) :   0.9041 B(  2-C , 16-H ) :   0.9436
B(  2-C , 17-H ) :   0.9451 B(  3-P ,  4-O ) :   1.9740 B(  3-P ,  5-C ) :   0.9070
B(  3-P ,  8-C ) :   0.9040 B(  5-C ,  6-C ) :   0.8555 B(  5-C , 18-H ) :   0.9513
B(  5-C , 19-H ) :   0.9503 B(  6-C ,  7-C ) :   0.9557 B(  6-C , 20-H ) :   0.9681
B(  6-C , 21-H ) :   0.9687 B(  7-C , 22-H ) :   0.9739 B(  7-C , 23-H ) :   0.9736
B(  7-C , 24-H ) :   0.9768 B(  8-C ,  9-C ) :   0.9075 B(  8-C , 25-H ) :   0.9435
B(  8-C , 26-H ) :   0.9447 B(  9-C , 10-C ) :   0.9437 B(  9-C , 27-H ) :   0.9661
B(  9-C , 28-H ) :   0.9701 B( 10-C , 29-H ) :   0.9753 B( 10-C , 30-H ) :   0.9798
B( 10-C , 31-H ) :   0.9718

Dispersion correction           -0.001488891
FINAL SINGLE POINT ENERGY      -772.175744483897

DIPOLE MOMENT
-------------

Method             : SCF
Type of density    : Electron Density
Multiplicity       :   1
Irrep              :   0
Energy             :  -772.1742555926283558 Eh
Relativity type    :
Basis              : AO
                                X                 Y                 Z
Electronic contribution:      1.535000252      -4.241242428      -7.315851166
Nuclear contribution   :     -1.891101579       4.843690793       8.857344203
                        -----------------------------------------
Total Dipole Moment    :     -0.356101327       0.602448365       1.541493038
                        -----------------------------------------
Magnitude (a.u.)       :      1.692912571
Magnitude (Debye)      :      4.303041787

Rotational constants in cm-1:             0.031488             0.018927             0.013948
Rotational constants in MHz :           943.981715           567.430345           418.139968

                             ****ORCA TERMINATED NORMALLY****
TOTAL RUN TIME: 0 days 0 hours 0 minutes 53 seconds 597 msec
