                         Program Version 6.0.0  -   RELEASE   -
|  1> ! RIJCOSX M062X def2-TZVP D3ZERO NormalSCF
|  2> %pal
|  3> nprocs 6
|  4> end
|  5>
|  6> * xyz 0 1
|  7>   C           0.16311418812446      2.69301195350375     -0.93085392938382
|  8>   C          -0.56454704918702      1.54277340472109     -0.21775453602346
|  9>   C          -0.72612955629062      1.78676320857503      1.28975800175715
| 10>   P           0.24710361635423     -0.08463130549707     -0.68407693667642
| 11>   O           0.96989180831475     -0.00969217873514     -2.02520453175436
| 12>   C          -1.11725138981128     -1.35520042699463     -0.73136609551047
| 13>   C          -1.93291776541871     -1.49423786401657      0.55950433126252
| 14>   C          -1.98580079731858     -1.09751301029447     -1.97196333590630
| 15>   C           1.40386493823034     -0.57588203501805      0.69597296237057
| 16>   C           2.59868302615438      0.39260396481586      0.68387947377867
| 17>   C           1.86435678978145     -2.02743670266558      0.48634809538767
| 18>   H           0.35708311505277      2.43488525860828     -1.98946513771958
| 19>   H          -0.44070771466865      3.62309349733604     -0.88408198688650
| 20>   H           1.14381796770459      2.90365125576640     -0.45730521750677
| 21>   H          -1.57787388044760      1.44978796488917     -0.67057394708199
| 22>   H           0.25720469377332      1.91742616379132      1.78579761765942
| 23>   H          -1.30633869735799      2.71682241888585      1.46667657578789
| 24>   H          -1.25773946251584      0.96290668109978      1.80464766990979
| 25>   H          -0.55208833449264     -2.29711670099965     -0.90737296770897
| 26>   H          -1.29504476584581     -1.67385677720344      1.44888349330211
| 27>   H          -2.54194035857819     -0.58732774221480      0.75367443883072
| 28>   H          -2.63931573138494     -2.34739555925359      0.48146170180382
| 29>   H          -2.67182649395083     -1.95060530816853     -2.15379666834002
| 30>   H          -1.34752827195037     -0.95498953837837     -2.86560476163318
| 31>   H          -2.61279163305439     -0.18914618952663     -1.84811083235715
| 32>   H           0.85632815957744     -0.49085772176330      1.65950619606567
| 33>   H           2.30433757804464      1.42937976257882      0.94173707054152
| 34>   H           3.36870773210429      0.06918437317618      1.41464116425133
| 35>   H           3.05507848193230      0.41411376813930     -0.32622299853873
| 36>   H           1.04168097389157     -2.75740409463636      0.62226558432565
| 37>   H           2.27526647815798     -2.15551471170726     -0.53637180574487
| 38>   H           2.66332235507494     -2.28759580881343      1.21142531173811
| 39> **                         ****END OF INPUT****

CARTESIAN COORDINATES (ANGSTROEM)
---------------------------------
  C      0.163114    2.693012   -0.930854
  C     -0.564547    1.542773   -0.217755
  C     -0.726130    1.786763    1.289758
  P      0.247104   -0.084631   -0.684077
  O      0.969892   -0.009692   -2.025205
  C     -1.117251   -1.355200   -0.731366
  C     -1.932918   -1.494238    0.559504
  C     -1.985801   -1.097513   -1.971963
  C      1.403865   -0.575882    0.695973
  C      2.598683    0.392604    0.683879
  C      1.864357   -2.027437    0.486348
  H      0.357083    2.434885   -1.989465
  H     -0.440708    3.623093   -0.884082
  H      1.143818    2.903651   -0.457305
  H     -1.577874    1.449788   -0.670574
  H      0.257205    1.917426    1.785798
  H     -1.306339    2.716822    1.466677
  H     -1.257739    0.962907    1.804648
  H     -0.552088   -2.297117   -0.907373
  H     -1.295045   -1.673857    1.448883
  H     -2.541940   -0.587328    0.753674
  H     -2.639316   -2.347396    0.481462
  H     -2.671826   -1.950605   -2.153797
  H     -1.347528   -0.954990   -2.865605
  H     -2.612792   -0.189146   -1.848111
  H      0.856328   -0.490858    1.659506
  H      2.304338    1.429380    0.941737
  H      3.368708    0.069184    1.414641
  H      3.055078    0.414114   -0.326223
  H      1.041681   -2.757404    0.622266
  H      2.275266   -2.155515   -0.536372
  H      2.663322   -2.287596    1.211425

 Total Charge           Charge          ....    0
 Multiplicity           Mult            ....    1
 Number of Electrons    NEL             ....   98
 Basis Dimension        Dim             ....  473

ORBITAL ENERGIES
----------------

  NO   OCC          E(Eh)            E(eV)
   0   2.0000     -78.077554     -2124.5983
   1   2.0000     -19.554660      -532.1093
   2   2.0000     -10.555825      -287.2386
   3   2.0000     -10.555361      -287.2260
   4   2.0000     -10.554936      -287.2144
   5   2.0000     -10.548072      -287.0276
   6   2.0000     -10.545725      -286.9638
   7   2.0000     -10.539108      -286.7837
   8   2.0000     -10.536393      -286.7098
   9   2.0000     -10.535314      -286.6805
  10   2.0000     -10.530343      -286.5452
  11   2.0000      -6.884995      -187.3502
  12   2.0000      -5.001759      -136.1048
  13   2.0000      -5.001650      -136.1018
  14   2.0000      -5.000204      -136.0625
  15   2.0000      -1.049442       -28.5568
  16   2.0000      -0.909059       -24.7368
  17   2.0000      -0.886605       -24.1257
  18   2.0000      -0.884332       -24.0639
  19   2.0000      -0.784344       -21.3431
  20   2.0000      -0.778734       -21.1904
  21   2.0000      -0.777325       -21.1521
  22   2.0000      -0.725814       -19.7504
  23   2.0000      -0.672295       -18.2941
  24   2.0000      -0.668221       -18.1832
  25   2.0000      -0.585952       -15.9446
  26   2.0000      -0.549784       -14.9604
  27   2.0000      -0.542774       -14.7696
  28   2.0000      -0.527237       -14.3468
  29   2.0000      -0.507085       -13.7985
  30   2.0000      -0.504308       -13.7229
  31   2.0000      -0.487922       -13.2770
  32   2.0000      -0.480259       -13.0685
  33   2.0000      -0.470549       -12.8043
  34   2.0000      -0.466223       -12.6866
  35   2.0000      -0.457956       -12.4616
  36   2.0000      -0.454075       -12.3560
  37   2.0000      -0.447955       -12.1895
  38   2.0000      -0.423245       -11.5171
  39   2.0000      -0.419100       -11.4043
  40   2.0000      -0.415218       -11.2987
  41   2.0000      -0.408398       -11.1131
  42   2.0000      -0.407609       -11.0916
  43   2.0000      -0.403441       -10.9782
  44   2.0000      -0.390722       -10.6321
  45   2.0000      -0.381128       -10.3710
  46   2.0000      -0.376935       -10.2569
  47   2.0000      -0.313442        -8.5292
  48   2.0000      -0.312397        -8.5007
  49   0.0000       0.048878         1.3300
  50   0.0000       0.068233         1.8567
  51   0.0000       0.069200         1.8830
  52   0.0000       0.075296         2.0489
  53   0.0000       0.091746         2.4965

MULLIKEN ATOMIC CHARGES
-----------------------
   0 C :   -0.400443
   1 C :   -0.278907
   2 C :   -0.441026
   3 P :    0.659515
   4 O :   -0.605870
   5 C :   -0.219116
   6 C :   -0.478810
   7 C :   -0.449964
   8 C :   -0.211183
   9 C :   -0.449273
  10 C :   -0.471388
  11 H :    0.186744
  12 H :    0.142266
  13 H :    0.137386
  14 H :    0.155781
  15 H :    0.148836
  16 H :    0.158535
  17 H :    0.165600
  18 H :    0.170783
  19 H :    0.166897
  20 H :    0.153463
  21 H :    0.161388
  22 H :    0.147220
  23 H :    0.190949
  24 H :    0.136911
  25 H :    0.167195
  26 H :    0.133732
  27 H :    0.147437
  28 H :    0.190600
  29 H :    0.149706
  30 H :    0.187459
  31 H :    0.147579
Sum of atomic charges:   -0.0000000

LOEWDIN ATOMIC CHARGES
----------------------
   0 C :   -0.311422
   1 C :   -0.393657
   2 C :   -0.316390
   3 P :    0.651253
   4 O :   -0.329938
   5 C :   -0.400119
   6 C :   -0.316754
   7 C :   -0.313236
   8 C :   -0.397828
   9 C :   -0.311590
  10 C :   -0.314008
  11 H :    0.137408
  12 H :    0.123410
  13 H :    0.123640
  14 H :    0.154903
  15 H :    0.124723
  16 H :    0.129339
  17 H :    0.121757
  18 H :    0.159290
  19 H :    0.124177
  20 H :    0.125488
  21 H :    0.129918
  22 H :    0.125738
  23 H :    0.138125
  24 H :    0.120788
  25 H :    0.147739
  26 H :    0.118031
  27 H :    0.125830
  28 H :    0.138464
  29 H :    0.121022
  30 H :    0.137002
  31 H :    0.126897

  Mayer bond orders larger than 0.100000
B(  0-C ,  1-C ) :   0.9557 B(  0-C , 11-H ) :   0.9617 B(  0-C , 12-H ) :   0.9686
B(  0-C , 13-H ) :   0.9576 B(  1-C ,  2-C ) :   0.9182 B(  1-C ,  3-P ) :   0.8724
B(  1-C , 14-H ) :   0.9394 B(  2-C , 15-H ) :   0.9560 B(  2-C , 16-H ) :   0.9658
B(  2-C , 17-H ) :   0.9744 B(  3-P ,  4-O ) :   1.9076 B(  3-P ,  5-C ) :   0.8818
B(  3-P ,  8-C ) :   0.8778 B(  5-C ,  6-C ) :   0.8941 B(  5-C ,  7-C ) :   0.9655
B(  5-C , 18-H ) :   0.9467 B(  6-C , 19-H ) :   0.9725 B(  6-C , 20-H ) :   0.9598
B(  6-C , 21-H ) :   0.9657 B(  7-C , 22-H ) :   0.9677 B(  7-C , 23-H ) :   0.9625
B(  7-C , 24-H ) :   0.9622 B(  8-C ,  9-C ) :   0.9453 B(  8-C , 10-C ) :   0.9223
B(  8-C , 25-H ) :   0.9342 B(  9-C , 26-H ) :   0.9684 B(  9-C , 27-H ) :   0.9717
B(  9-C , 28-H ) :   0.9557 B( 10-C , 29-H ) :   0.9710 B( 10-C , 30-H ) :   0.9590
B( 10-C , 31-H ) :   0.9688

Dispersion correction           -0.001798949
FINAL SINGLE POINT ENERGY      -772.174536820762

DIPOLE MOMENT
-------------

Method             : SCF
Type of density    : Electron Density
Multiplicity       :   1
Irrep              :   0
Energy             :  -772.1727378717687316 Eh
Relativity type    :
Basis              : AO
                                X                 Y                 Z
Electronic contribution:      2.292809684      -0.867496151      -5.881401020
Nuclear contribution   :     -3.065053100       0.735892059       7.270404046
                        -----------------------------------------
Total Dipole Moment    :     -0.772243417      -0.131604092       1.389003026
                        -----------------------------------------
Magnitude (a.u.)       :      1.594681453
Magnitude (Debye)      :      4.053358128

Rotational constants in cm-1:             0.031996             0.029136             0.022957
Rotational constants in MHz :           959.205499           873.483736           688.243339

                             ****ORCA TERMINATED NORMALLY****
TOTAL RUN TIME: 0 days 0 hours 0 minutes 58 seconds 569 msec
