                         Program Version 6.0.0  -   RELEASE   -
|  1> ! RIJCOSX M062X def2-TZVP D3ZERO NormalSCF
|  2> %pal
|  3> nprocs 6
|  4> end
|  5>
|  6> * xyz 0 1
|  7>   C           0.82526224991168     -0.54039669639180     -1.45940790915139
|  8>   N           1.40710884991475     -0.68740152532233     -0.11512986298262
|  9>   C           1.56582043397603      0.65217888525770      0.47462196109763
| 10>   N           0.32776746987480      1.44777158395572      0.50885720745818
| 11>   C          -0.21799955501502      1.52353773625080     -0.85603681780201
| 12>   N          -0.43841012962536      0.21408518710157     -1.49199817565319
| 13>   C          -1.53096605008169     -0.52871132035432     -0.83776029580344
| 14>   P          -1.13395216858075     -0.85308688306447      0.96009137981296
| 15>   O          -2.13685262723531     -1.60840135707069      1.80821492631297
| 16>   C           0.58263412776820     -1.56108030890228      0.73989605065260
| 17>   C          -0.65314268598330      0.88472802960318      1.45462507575409
| 18>   H           0.66127127289841     -1.54651932912208     -1.89726645350642
| 19>   H           1.56088587748254     -0.00155920967439     -2.09226533588852
| 20>   H           2.31071972979557      1.20692931903089     -0.13308311275152
| 21>   H           1.96291230319342      0.55211419866378      1.50574753225500
| 22>   H          -1.17513745494788      2.08421899441921     -0.83587862283624
| 23>   H           0.50405470319786      2.08885699033498     -1.48139937374101
| 24>   H          -2.48062024116134      0.04544555178745     -0.90197653648824
| 25>   H          -1.70263694750730     -1.49902736302163     -1.35250409015090
| 26>   H           1.05566535832970     -1.68322957274966      1.73845884138232
| 27>   H           0.50203628659437     -2.57526083823616      0.29200535319522
| 28>   H          -0.23124168257821      0.86535747766940      2.48285815448861
| 29>   H          -1.56517812022115      1.51944844983514      1.48932910434593
| 30> **                         ****END OF INPUT****

CARTESIAN COORDINATES (ANGSTROEM)
---------------------------------
  C      0.825262   -0.540397   -1.459408
  N      1.407109   -0.687402   -0.115130
  C      1.565820    0.652179    0.474622
  N      0.327767    1.447772    0.508857
  C     -0.218000    1.523538   -0.856037
  N     -0.438410    0.214085   -1.491998
  C     -1.530966   -0.528711   -0.837760
  P     -1.133952   -0.853087    0.960091
  O     -2.136853   -1.608401    1.808215
  C      0.582634   -1.561080    0.739896
  C     -0.653143    0.884728    1.454625
  H      0.661271   -1.546519   -1.897266
  H      1.560886   -0.001559   -2.092265
  H      2.310720    1.206929   -0.133083
  H      1.962912    0.552114    1.505748
  H     -1.175137    2.084219   -0.835879
  H      0.504055    2.088857   -1.481399
  H     -2.480620    0.045446   -0.901977
  H     -1.702637   -1.499027   -1.352504
  H      1.055665   -1.683230    1.738459
  H      0.502036   -2.575261    0.292005
  H     -0.231242    0.865357    2.482858
  H     -1.565178    1.519448    1.489329

 Total Charge           Charge          ....    0
 Multiplicity           Mult            ....    1
 Number of Electrons    NEL             ....   92
 Basis Dimension        Dim             ....  419

ORBITAL ENERGIES
----------------

  NO   OCC          E(Eh)            E(eV)
   0   2.0000     -78.089612     -2124.9264
   1   2.0000     -19.576148      -532.6941
   2   2.0000     -14.765260      -401.7832
   3   2.0000     -14.765242      -401.7827
   4   2.0000     -14.765225      -401.7822
   5   2.0000     -10.609830      -288.7081
   6   2.0000     -10.609819      -288.7079
   7   2.0000     -10.609769      -288.7065
   8   2.0000     -10.585553      -288.0476
   9   2.0000     -10.585545      -288.0473
  10   2.0000     -10.585476      -288.0454
  11   2.0000      -6.897413      -187.6881
  12   2.0000      -5.014311      -136.4463
  13   2.0000      -5.014309      -136.4463
  14   2.0000      -5.012493      -136.3969
  15   2.0000      -1.115367       -30.3507
  16   2.0000      -1.064888       -28.9771
  17   2.0000      -1.015632       -27.6368
  18   2.0000      -1.015586       -27.6355
  19   2.0000      -0.863724       -23.5031
  20   2.0000      -0.810519       -22.0554
  21   2.0000      -0.810486       -22.0544
  22   2.0000      -0.738679       -20.1005
  23   2.0000      -0.738596       -20.0982
  24   2.0000      -0.681950       -18.5568
  25   2.0000      -0.644114       -17.5272
  26   2.0000      -0.572219       -15.5709
  27   2.0000      -0.571139       -15.5415
  28   2.0000      -0.571117       -15.5409
  29   2.0000      -0.566207       -15.4073
  30   2.0000      -0.524719       -14.2783
  31   2.0000      -0.524630       -14.2759
  32   2.0000      -0.479363       -13.0441
  33   2.0000      -0.467599       -12.7240
  34   2.0000      -0.467535       -12.7223
  35   2.0000      -0.458651       -12.4805
  36   2.0000      -0.447716       -12.1830
  37   2.0000      -0.447618       -12.1803
  38   2.0000      -0.447247       -12.1702
  39   2.0000      -0.437235       -11.8978
  40   2.0000      -0.437159       -11.8957
  41   2.0000      -0.367411        -9.9978
  42   2.0000      -0.363431        -9.8894
  43   2.0000      -0.363409        -9.8889
  44   2.0000      -0.275453        -7.4955
  45   2.0000      -0.275415        -7.4944
  46   0.0000       0.044872         1.2210
  47   0.0000       0.064847         1.7646
  48   0.0000       0.081363         2.2140
  49   0.0000       0.082430         2.2430
  50   0.0000       0.082457         2.2438

MULLIKEN ATOMIC CHARGES
-----------------------
   0 C :   -0.252423
   1 N :   -0.128138
   2 C :   -0.251862
   3 N :   -0.128282
   4 C :   -0.251541
   5 N :   -0.128192
   6 C :   -0.375416
   7 P :    0.671732
   8 O :   -0.584297
   9 C :   -0.376869
  10 C :   -0.375665
  11 H :    0.185087
  12 H :    0.178334
  13 H :    0.178338
  14 H :    0.185059
  15 H :    0.185082
  16 H :    0.178067
  17 H :    0.182113
  18 H :    0.181251
  19 H :    0.181876
  20 H :    0.181936
  21 H :    0.182128
  22 H :    0.181681
Sum of atomic charges:   -0.0000000

LOEWDIN ATOMIC CHARGES
----------------------
   0 C :   -0.309745
   1 N :    0.059473
   2 C :   -0.309634
   3 N :    0.059568
   4 C :   -0.309564
   5 N :    0.059493
   6 C :   -0.385286
   7 P :    0.560175
   8 O :   -0.323239
   9 C :   -0.385079
  10 C :   -0.385157
  11 H :    0.138152
  12 H :    0.139987
  13 H :    0.139974
  14 H :    0.138123
  15 H :    0.138129
  16 H :    0.139986
  17 H :    0.139122
  18 H :    0.139114
  19 H :    0.139121
  20 H :    0.139109
  21 H :    0.139069
  22 H :    0.139108

  Mayer bond orders larger than 0.100000
B(  0-C ,  1-N ) :   0.9351 B(  0-C ,  5-N ) :   0.9351 B(  0-C , 11-H ) :   0.9886
B(  0-C , 12-H ) :   0.9822 B(  1-N ,  2-C ) :   0.9350 B(  1-N ,  9-C ) :   0.9038
B(  2-C ,  3-N ) :   0.9346 B(  2-C , 13-H ) :   0.9823 B(  2-C , 14-H ) :   0.9888
B(  3-N ,  4-C ) :   0.9356 B(  3-N , 10-C ) :   0.9045 B(  4-C ,  5-N ) :   0.9349
B(  4-C , 15-H ) :   0.9887 B(  4-C , 16-H ) :   0.9822 B(  5-N ,  6-C ) :   0.9048
B(  6-C ,  7-P ) :   0.9120 B(  6-C , 17-H ) :   0.9444 B(  6-C , 18-H ) :   0.9446
B(  7-P ,  8-O ) :   1.9882 B(  7-P ,  9-C ) :   0.9118 B(  7-P , 10-C ) :   0.9119
B(  9-C , 19-H ) :   0.9447 B(  9-C , 20-H ) :   0.9446 B( 10-C , 21-H ) :   0.9446
B( 10-C , 22-H ) :   0.9446

Dispersion correction           -0.000764133
FINAL SINGLE POINT ENERGY      -816.673972921550

DIPOLE MOMENT
-------------

Method             : SCF
Type of density    : Electron Density
Multiplicity       :   1
Irrep              :   0
Energy             :  -816.6732087885263809 Eh
Relativity type    :
Basis              : AO
                                X                 Y                 Z
Electronic contribution:     -3.901638449      -2.935879422       3.301425971
Nuclear contribution   :      4.878636099       3.672918486      -4.127640988
                        -----------------------------------------
Total Dipole Moment    :      0.976997649       0.737039064      -0.826215017
                        -----------------------------------------
Magnitude (a.u.)       :      1.476611744
Magnitude (Debye)      :      3.753248779

Rotational constants in cm-1:             0.054561             0.033968             0.033967
Rotational constants in MHz :          1635.696829          1018.348078          1018.294992

                             ****ORCA TERMINATED NORMALLY****
TOTAL RUN TIME: 0 days 0 hours 0 minutes 50 seconds 607 msec
