                         Program Version 6.0.0  -   RELEASE   -
|  1> ! RI BP86 def2-SVP D3BJ TIGHTSCF Opt
|  2> %pal
|  3> nprocs 6
|  4> end
|  5>
|  6> * xyz 0 1
|  7> C     -1.482197   -2.698413   -0.017457
|  8> C     -1.813943   -1.334788   -0.591208
|  9> P     -1.108174    0.038572    0.356404
| 10> O     -1.682317    0.042460    1.752217
| 11> C     -1.703001    1.487905   -0.553437
| 12> C     -1.265873    2.805475    0.056193
| 13> C      0.658786   -0.029415    0.247086
| 14> C      1.423510   -0.075179    1.420118
| 15> C      2.816206   -0.129126    1.360846
| 16> C      3.460140   -0.137896    0.125702
| 17> C      2.712081   -0.092763   -1.049054
| 18> C      1.318368   -0.038787   -0.989137
| 19> H     -0.401055   -2.865314   -0.011096
| 20> H     -1.950490   -3.489899   -0.609831
| 21> H     -1.837828   -2.780015    1.014091
| 22> H     -1.463296   -1.275659   -1.626844
| 23> H     -2.901942   -1.208425   -0.612524
| 24> H     -2.797537    1.447924   -0.576979
| 25> H     -1.356987    1.429132   -1.590650
| 26> H     -1.615081    2.887141    1.089927
| 27> H     -1.669995    3.646810   -0.514328
| 28> H     -0.174976    2.886794    0.065867
| 29> H      0.925094   -0.068561    2.388878
| 30> H      3.396700   -0.164241    2.279253
| 31> H      4.545301   -0.179929    0.079462
| 32> H      3.216206   -0.099680   -2.012233
| 33> H      0.752302   -0.004122   -1.916408
| 34> **                         ****END OF INPUT****
 Total Charge           Charge          ....    0
 Multiplicity           Mult            ....    1
 Number of Electrons    NEL             ....   98
Dispersion correction           -0.052548929
FINAL SINGLE POINT ENERGY      -806.335311328584
Dispersion correction             ... done (  0.1 sec)
Dispersion correction           -0.052287028
FINAL SINGLE POINT ENERGY      -806.342970452270
Dispersion correction             ... done (  0.1 sec)
Dispersion correction           -0.052231826
FINAL SINGLE POINT ENERGY      -806.344940771632
Dispersion correction             ... done (  0.1 sec)
FINAL SINGLE POINT ENERGY      -806.345369583129
FINAL SINGLE POINT ENERGY      -806.345454224302
FINAL SINGLE POINT ENERGY      -806.345478685615
Dispersion correction             ... done (  0.1 sec)
Dispersion correction           -0.052306816
FINAL SINGLE POINT ENERGY      -806.345486785099
Dispersion correction             ... done (  0.1 sec)
Dispersion correction           -0.052308426
FINAL SINGLE POINT ENERGY      -806.345488376189
Dispersion correction             ... done (  0.1 sec)
                    ***********************HURRAY********************

CARTESIAN COORDINATES (ANGSTROEM)
---------------------------------
  C     -1.459771   -2.716166    0.050082
  C     -1.815908   -1.393688   -0.637402
  P     -1.192213    0.042019    0.337622
  O     -1.633872    0.039887    1.792537
  C     -1.701096    1.547065   -0.598870
  C     -1.240735    2.819046    0.121168
  C      0.636877   -0.026843    0.182071
  C      1.369465   -0.074267    1.384011
  C      2.772162   -0.129190    1.349458
  C      3.445640   -0.136685    0.116144
  C      2.716887   -0.089352   -1.085880
  C      1.314532   -0.034444   -1.054316
  H     -0.361783   -2.870544    0.076705
  H     -1.914226   -3.579139   -0.476522
  H     -1.823436   -2.709946    1.096625
  H     -1.413255   -1.335360   -1.671696
  H     -2.917261   -1.261025   -0.706485
  H     -2.809477    1.503313   -0.668268
  H     -1.304796    1.483286   -1.635316
  H     -1.601172    2.813865    1.168852
  H     -1.627354    3.728594   -0.380657
  H     -0.133926    2.886470    0.146807
  H      0.808805   -0.067016    2.332186
  H      3.343777   -0.166591    2.289726
  H      4.545411   -0.179936    0.089033
  H      3.245384   -0.095462   -2.051691
  H      0.751342    0.002112   -2.001065

 Multiplicity           Mult            ....    1
 Number of Electrons    NEL             ....   98
 Basis Dimension        Dim             ....  247

ORBITAL ENERGIES
----------------

  NO   OCC          E(Eh)            E(eV)
   0   2.0000     -76.405027     -2079.0865
   1   2.0000     -18.711366      -509.1621
   2   2.0000      -9.934958      -270.3439
   3   2.0000      -9.930678      -270.2275
   4   2.0000      -9.930393      -270.2197
   5   2.0000      -9.927698      -270.1464
   6   2.0000      -9.926302      -270.1084
   7   2.0000      -9.926286      -270.1080
   8   2.0000      -9.925986      -270.0998
   9   2.0000      -9.925804      -270.0949
  10   2.0000      -9.914806      -269.7956
  11   2.0000      -9.914793      -269.7952
  12   2.0000      -6.364738      -173.1933
  13   2.0000      -4.586172      -124.7961
  14   2.0000      -4.585659      -124.7821
  15   2.0000      -4.585572      -124.7797
  16   2.0000      -0.844733       -22.9863
  17   2.0000      -0.778572       -21.1860
  18   2.0000      -0.708272       -19.2731
  19   2.0000      -0.688312       -18.7299
  20   2.0000      -0.676975       -18.4214
  21   2.0000      -0.676069       -18.3968
  22   2.0000      -0.592690       -16.1279
  23   2.0000      -0.551958       -15.0195
  24   2.0000      -0.547962       -14.9108
  25   2.0000      -0.545576       -14.8459
  26   2.0000      -0.491442       -13.3728
  27   2.0000      -0.456022       -12.4090
  28   2.0000      -0.417572       -11.3627
  29   2.0000      -0.411111       -11.1869
  30   2.0000      -0.409405       -11.1405
  31   2.0000      -0.403772       -10.9872
  32   2.0000      -0.402799       -10.9607
  33   2.0000      -0.381991       -10.3945
  34   2.0000      -0.370261       -10.0753
  35   2.0000      -0.366144        -9.9633
  36   2.0000      -0.341353        -9.2887
  37   2.0000      -0.339797        -9.2463
  38   2.0000      -0.332277        -9.0417
  39   2.0000      -0.321227        -8.7410
  40   2.0000      -0.313239        -8.5237
  41   2.0000      -0.310071        -8.4375
  42   2.0000      -0.299537        -8.1508
  43   2.0000      -0.296853        -8.0778
  44   2.0000      -0.291010        -7.9188
  45   2.0000      -0.241056        -6.5595
  46   2.0000      -0.240028        -6.5315
  47   2.0000      -0.213457        -5.8085
  48   2.0000      -0.211817        -5.7638
  49   0.0000      -0.062933        -1.7125
  50   0.0000      -0.051907        -1.4125
  51   0.0000       0.017808         0.4846
  52   0.0000       0.040223         1.0945
  53   0.0000       0.049480         1.3464

MULLIKEN ATOMIC CHARGES
-----------------------
   0 C :   -0.043409
   1 C :   -0.164107
   2 P :    0.476139
   3 O :   -0.466272
   4 C :   -0.164180
   5 C :   -0.043626
   6 C :   -0.137981
   7 C :    0.005215
   8 C :    0.002625
   9 C :    0.007371
  10 C :   -0.002690
  11 C :   -0.010296
  12 H :    0.045411
  13 H :    0.039496
  14 H :    0.057702
  15 H :    0.041799
  16 H :    0.061464
  17 H :    0.061492
  18 H :    0.041833
  19 H :    0.057740
  20 H :    0.039516
  21 H :    0.045565
  22 H :    0.024569
  23 H :    0.010593
  24 H :    0.009183
  25 H :    0.005473
  26 H :   -0.000627
Sum of atomic charges:   -0.0000000

LOEWDIN ATOMIC CHARGES
----------------------
   0 C :   -0.080009
   1 C :   -0.196298
   2 P :    0.872640
   3 O :   -0.502602
   4 C :   -0.196274
   5 C :   -0.080062
   6 C :   -0.188895
   7 C :   -0.018456
   8 C :   -0.027093
   9 C :   -0.022722
  10 C :   -0.030507
  11 C :   -0.037682
  12 H :    0.032901
  13 H :    0.032245
  14 H :    0.037632
  15 H :    0.029211
  16 H :    0.037334
  17 H :    0.037339
  18 H :    0.029195
  19 H :    0.037621
  20 H :    0.032258
  21 H :    0.032937
  22 H :    0.038624
  23 H :    0.035547
  24 H :    0.034619
  25 H :    0.033870
  26 H :    0.026625

  Mayer bond orders larger than 0.100000
B(  0-C ,  1-C ) :   1.0858 B(  0-C , 12-H ) :   0.9684 B(  0-C , 13-H ) :   0.9615
B(  0-C , 14-H ) :   0.9586 B(  1-C ,  2-P ) :   0.9223 B(  1-C , 15-H ) :   0.9174
B(  1-C , 16-H ) :   0.9283 B(  2-P ,  3-O ) :   1.8703 B(  2-P ,  4-C ) :   0.9223
B(  2-P ,  6-C ) :   0.8579 B(  4-C ,  5-C ) :   1.0858 B(  4-C , 17-H ) :   0.9282
B(  4-C , 18-H ) :   0.9174 B(  5-C , 19-H ) :   0.9586 B(  5-C , 20-H ) :   0.9615
B(  5-C , 21-H ) :   0.9684 B(  6-C ,  7-C ) :   1.3945 B(  6-C , 11-C ) :   1.3388
B(  7-C ,  8-C ) :   1.3632 B(  7-C , 22-H ) :   0.9686 B(  8-C ,  9-C ) :   1.3842
B(  8-C , 23-H ) :   0.9793 B(  9-C , 10-C ) :   1.3786 B(  9-C , 24-H ) :   0.9757
B( 10-C , 11-C ) :   1.4040 B( 10-C , 25-H ) :   0.9751 B( 11-C , 26-H ) :   0.9720

Dispersion correction           -0.052309673
FINAL SINGLE POINT ENERGY      -806.345488742939

DIPOLE MOMENT
-------------

Method             : SCF
Type of density    : Electron Density
Multiplicity       :   1
Irrep              :   0
Energy             :  -806.2931790698321493 Eh
Relativity type    :
Basis              : AO
                                X                 Y                 Z
Electronic contribution:      2.943764976      -0.161760079       3.701411220
Nuclear contribution   :     -2.422548204       0.158615548      -5.027533033
                        -----------------------------------------
Total Dipole Moment    :      0.521216771      -0.003144531      -1.326121813
                        -----------------------------------------
Magnitude (a.u.)       :      1.424877494
Magnitude (Debye)      :      3.621750765

Rotational constants in cm-1:             0.036457             0.020734             0.017610
Rotational constants in MHz :          1092.960049           621.582223           527.931915

                             ****ORCA TERMINATED NORMALLY****
TOTAL RUN TIME: 0 days 0 hours 1 minutes 18 seconds 191 msec
