                         Program Version 6.0.0  -   RELEASE   -
|  1> ! RI BP86 def2-SVP D3BJ TIGHTSCF Opt
|  2> %pal
|  3> nprocs 6
|  4> end
|  5>
|  6> * xyz 0 1
|  7> C     -0.383296    2.213311   -0.402039
|  8> C     -0.159444    3.559673   -0.704129
|  9> C      0.765817    4.293909    0.034876
| 10> C      1.469126    3.694589    1.076029
| 11> C      1.245293    2.349750    1.377894
| 12> C      0.319020    1.591906    0.641707
| 13> P      0.087334   -0.145492    1.074398
| 14> O      0.209291   -0.348665    2.574739
| 15> C     -1.541818   -0.657268    0.488391
| 16> C     -2.654179   -0.435529    1.317706
| 17> C     -3.936942   -0.803176    0.906406
| 18> C     -4.117669   -1.398294   -0.338985
| 19> C     -3.026388   -1.629602   -1.173813
| 20> C     -1.742288   -1.261310   -0.762106
| 21> Cl    -5.696006   -1.851101   -0.850776
| 22> C      1.330354   -1.113821    0.193097
| 23> C      1.951192   -0.661485   -0.981104
| 24> C      2.900516   -1.454763   -1.631911
| 25> C      3.236615   -2.703635   -1.113557
| 26> C      2.633219   -3.166953    0.052238
| 27> C      1.685110   -2.374383    0.702420
| 28> Cl     4.403557   -3.677087   -1.919007
| 29> Cl     1.039510    5.949570   -0.341939
| 30> H     -1.112871    1.662490   -0.990431
| 31> H     -0.711864    4.030403   -1.513727
| 32> H      2.187598    4.265897    1.658228
| 33> H      1.790824    1.885855    2.199488
| 34> H     -2.514802    0.021867    2.297084
| 35> H     -4.785323   -0.626359    1.562558
| 36> H     -3.168305   -2.099234   -2.144128
| 37> H     -0.906337   -1.455487   -1.429467
| 38> H      1.708447    0.310678   -1.402837
| 39> H      3.376377   -1.091889   -2.539703
| 40> H      2.897144   -4.138341    0.462481
| 41> H      1.221187   -2.736025    1.619921
| 42> **                         ****END OF INPUT****
 Total Charge           Charge          ....    0
 Multiplicity           Mult            ....    1
 Number of Electrons    NEL             ....  194
Dispersion correction           -0.096409644
FINAL SINGLE POINT ENERGY     -2489.518802873940
Dispersion correction             ... done (  0.1 sec)
Dispersion correction           -0.096307378
FINAL SINGLE POINT ENERGY     -2489.524443332178
Dispersion correction             ... done (  0.1 sec)
Dispersion correction           -0.096394828
FINAL SINGLE POINT ENERGY     -2489.525638110090
Dispersion correction             ... done (  0.1 sec)
FINAL SINGLE POINT ENERGY     -2489.525855454644
Dispersion correction             ... done (  0.1 sec)
Dispersion correction           -0.096311424
FINAL SINGLE POINT ENERGY     -2489.525919241831
Dispersion correction             ... done (  0.1 sec)
Dispersion correction           -0.096294995
FINAL SINGLE POINT ENERGY     -2489.525925566367
Dispersion correction             ... done (  0.1 sec)
                    ***********************HURRAY********************

CARTESIAN COORDINATES (ANGSTROEM)
---------------------------------
  C     -0.250772    2.138513   -0.496758
  C     -0.008276    3.477541   -0.836470
  C      0.809433    4.258865   -0.001069
  C      1.375974    3.723535    1.169839
  C      1.128080    2.384149    1.498045
  C      0.325395    1.581462    0.662237
  P      0.095161   -0.160770    1.174050
  O      0.217639   -0.365504    2.673389
  C     -1.537655   -0.652431    0.509172
  C     -2.630684   -0.565366    1.395365
  C     -3.920602   -0.903810    0.965947
  C     -4.110616   -1.337751   -0.358533
  C     -3.029100   -1.447708   -1.250244
  C     -1.742069   -1.107136   -0.808695
  Cl    -5.716386   -1.761123   -0.902206
  C      1.323530   -1.117672    0.211916
  C      1.806987   -0.722559   -1.051300
  C      2.733483   -1.520923   -1.737918
  C      3.179928   -2.715445   -1.145634
  C      2.721913   -3.114304    0.123100
  C      1.795409   -2.309371    0.798928
  Cl     4.334318   -3.714452   -1.995775
  Cl     1.115382    5.927739   -0.418781
  H     -0.910835    1.531301   -1.135360
  H     -0.454322    3.923428   -1.736487
  H      1.999000    4.359095    1.814735
  H      1.544166    1.946849    2.418911
  H     -2.452774   -0.242836    2.432977
  H     -4.779823   -0.841125    1.648436
  H     -3.200081   -1.806413   -2.274876
  H     -0.889494   -1.215619   -1.496673
  H      1.473600    0.225404   -1.501088
  H      3.119521   -1.221843   -2.722451
  H      3.097801   -4.044640    0.571615
  H      1.436765   -2.589083    1.801656

 Multiplicity           Mult            ....    1
 Number of Electrons    NEL             ....  194
 Basis Dimension        Dim             ....  398

ORBITAL ENERGIES
----------------

  NO   OCC          E(Eh)            E(eV)
   0   2.0000    -100.712793     -2740.5344
   1   2.0000    -100.712771     -2740.5338
   2   2.0000    -100.712757     -2740.5334
   3   2.0000     -76.428965     -2079.7379
   4   2.0000     -18.729757      -509.6626
   5   2.0000      -9.990287      -271.8495
   6   2.0000      -9.990254      -271.8486
   7   2.0000      -9.990242      -271.8483
   8   2.0000      -9.949718      -270.7456
   9   2.0000      -9.949696      -270.7450
  10   2.0000      -9.949637      -270.7434
  11   2.0000      -9.946583      -270.6603
  12   2.0000      -9.946565      -270.6598
  13   2.0000      -9.946525      -270.6587
  14   2.0000      -9.944894      -270.6143
  15   2.0000      -9.944858      -270.6133
  16   2.0000      -9.944828      -270.6125
  17   2.0000      -9.944705      -270.6092
  18   2.0000      -9.944667      -270.6081
  19   2.0000      -9.944647      -270.6076
  20   2.0000      -9.941070      -270.5103
  21   2.0000      -9.941026      -270.5091
  22   2.0000      -9.940963      -270.5074
  23   2.0000      -9.197963      -250.2893
  24   2.0000      -9.197942      -250.2887
  25   2.0000      -9.197927      -250.2883
  26   2.0000      -7.028893      -191.2659
  27   2.0000      -7.028875      -191.2654
  28   2.0000      -7.028858      -191.2650
  29   2.0000      -7.017753      -190.9628
  30   2.0000      -7.017730      -190.9622
  31   2.0000      -7.017717      -190.9618
  32   2.0000      -7.017002      -190.9423
  33   2.0000      -7.016980      -190.9417
  34   2.0000      -7.016966      -190.9414
  35   2.0000      -6.386908      -173.7966
  36   2.0000      -4.608134      -125.3937
  37   2.0000      -4.608128      -125.3935
  38   2.0000      -4.607896      -125.3872
  39   2.0000      -0.864304       -23.5189
  40   2.0000      -0.824148       -22.4262
  41   2.0000      -0.823949       -22.4208
  42   2.0000      -0.823927       -22.4202
  43   2.0000      -0.777562       -21.1585
  44   2.0000      -0.772095       -21.0098
  45   2.0000      -0.772084       -21.0095
  46   2.0000      -0.699211       -19.0265
  47   2.0000      -0.696146       -18.9431
  48   2.0000      -0.696125       -18.9425
  49   2.0000      -0.693849       -18.8806
  50   2.0000      -0.671976       -18.2854
  51   2.0000      -0.671959       -18.2849
  52   2.0000      -0.588657       -16.0182
  53   2.0000      -0.574376       -15.6296
  54   2.0000      -0.571269       -15.5450
  55   2.0000      -0.571194       -15.5430
  56   2.0000      -0.549305       -14.9473
  57   2.0000      -0.549283       -14.9468
  58   2.0000      -0.520446       -14.1621
  59   2.0000      -0.483369       -13.1531
  60   2.0000      -0.483325       -13.1519
  61   2.0000      -0.456057       -12.4099
  62   2.0000      -0.443229       -12.0609
  63   2.0000      -0.441032       -12.0011
  64   2.0000      -0.440975       -11.9995
  65   2.0000      -0.424127       -11.5411
  66   2.0000      -0.424061       -11.5393
  67   2.0000      -0.416447       -11.3321
  68   2.0000      -0.401795       -10.9334
  69   2.0000      -0.401724       -10.9315
  70   2.0000      -0.401310       -10.9202
  71   2.0000      -0.398625       -10.8471
  72   2.0000      -0.398566       -10.8455
  73   2.0000      -0.371325       -10.1043
  74   2.0000      -0.371319       -10.1041
  75   2.0000      -0.370362       -10.0781
  76   2.0000      -0.366790        -9.9809
  77   2.0000      -0.338966        -9.2237
  78   2.0000      -0.337934        -9.1956
  79   2.0000      -0.337926        -9.1954
  80   2.0000      -0.330446        -8.9919
  81   2.0000      -0.330340        -8.9890
  82   2.0000      -0.317422        -8.6375
  83   2.0000      -0.309761        -8.4290
  84   2.0000      -0.309624        -8.4253
  85   2.0000      -0.305214        -8.3053
  86   2.0000      -0.282179        -7.6785
  87   2.0000      -0.282063        -7.6753
  88   2.0000      -0.282044        -7.6748
  89   2.0000      -0.257891        -7.0176
  90   2.0000      -0.257078        -6.9954
  91   2.0000      -0.257027        -6.9941
  92   2.0000      -0.242477        -6.5981
  93   2.0000      -0.242457        -6.5976
  94   2.0000      -0.232374        -6.3232
  95   2.0000      -0.229360        -6.2412
  96   2.0000      -0.229242        -6.2380
  97   0.0000      -0.081768        -2.2250
  98   0.0000      -0.081588        -2.2201
  99   0.0000      -0.072706        -1.9784
 100   0.0000      -0.070710        -1.9241
 101   0.0000      -0.065136        -1.7724

MULLIKEN ATOMIC CHARGES
-----------------------
   0 C :   -0.025215
   1 C :    0.032998
   2 C :    0.023300
   3 C :    0.032573
   4 C :   -0.003162
   5 C :   -0.111216
   6 P :    0.634781
   7 O :   -0.449962
   8 C :   -0.110964
   9 C :   -0.002796
  10 C :    0.032543
  11 C :    0.023321
  12 C :    0.033079
  13 C :   -0.025302
  14 Cl:   -0.074174
  15 C :   -0.111468
  16 C :   -0.025191
  17 C :    0.033092
  18 C :    0.023364
  19 C :    0.032458
  20 C :   -0.002909
  21 Cl:   -0.074153
  22 Cl:   -0.074151
  23 H :    0.013031
  24 H :    0.007482
  25 H :    0.012471
  26 H :    0.030197
  27 H :    0.030161
  28 H :    0.012462
  29 H :    0.007491
  30 H :    0.013001
  31 H :    0.012626
  32 H :    0.007515
  33 H :    0.012498
  34 H :    0.030220
Sum of atomic charges:   -0.0000000

LOEWDIN ATOMIC CHARGES
----------------------
   0 C :   -0.029158
   1 C :   -0.044923
   2 C :   -0.112156
   3 C :   -0.040606
   4 C :   -0.006705
   5 C :   -0.189798
   6 P :    0.886605
   7 O :   -0.484899
   8 C :   -0.189789
   9 C :   -0.006660
  10 C :   -0.040606
  11 C :   -0.112132
  12 C :   -0.044894
  13 C :   -0.029061
  14 Cl:    0.127785
  15 C :   -0.189828
  16 C :   -0.029057
  17 C :   -0.044900
  18 C :   -0.112101
  19 C :   -0.040622
  20 C :   -0.006671
  21 Cl:    0.127797
  22 Cl:    0.127808
  23 H :    0.036010
  24 H :    0.040336
  25 H :    0.041841
  26 H :    0.043311
  27 H :    0.043258
  28 H :    0.041845
  29 H :    0.040346
  30 H :    0.036068
  31 H :    0.036038
  32 H :    0.040351
  33 H :    0.041857
  34 H :    0.043313

  Mayer bond orders larger than 0.100000
B(  0-C ,  1-C ) :   1.3801 B(  0-C ,  5-C ) :   1.3522 B(  0-C , 23-H ) :   0.9624
B(  1-C ,  2-C ) :   1.3749 B(  1-C , 24-H ) :   0.9767 B(  2-C ,  3-C ) :   1.3723
B(  2-C , 22-Cl) :   0.9958 B(  3-C ,  4-C ) :   1.3676 B(  3-C , 25-H ) :   0.9793
B(  4-C ,  5-C ) :   1.3659 B(  4-C , 26-H ) :   0.9692 B(  5-C ,  6-P ) :   0.8801
B(  6-P ,  7-O ) :   1.8861 B(  6-P ,  8-C ) :   0.8798 B(  6-P , 15-C ) :   0.8796
B(  8-C ,  9-C ) :   1.3649 B(  8-C , 13-C ) :   1.3537 B(  9-C , 10-C ) :   1.3685
B(  9-C , 27-H ) :   0.9691 B( 10-C , 11-C ) :   1.3719 B( 10-C , 28-H ) :   0.9793
B( 11-C , 12-C ) :   1.3752 B( 11-C , 14-Cl) :   0.9957 B( 12-C , 13-C ) :   1.3795
B( 12-C , 29-H ) :   0.9767 B( 13-C , 30-H ) :   0.9626 B( 15-C , 16-C ) :   1.3524
B( 15-C , 20-C ) :   1.3655 B( 16-C , 17-C ) :   1.3798 B( 16-C , 31-H ) :   0.9626
B( 17-C , 18-C ) :   1.3749 B( 17-C , 32-H ) :   0.9767 B( 18-C , 19-C ) :   1.3722
B( 18-C , 21-Cl) :   0.9957 B( 19-C , 20-C ) :   1.3681 B( 19-C , 33-H ) :   0.9793
B( 20-C , 34-H ) :   0.9691

Dispersion correction           -0.096287769
FINAL SINGLE POINT ENERGY     -2489.525927623551

DIPOLE MOMENT
-------------

Method             : SCF
Type of density    : Electron Density
Multiplicity       :   1
Irrep              :   0
Energy             : -2489.4296398550018239 Eh
Relativity type    :
Basis              : AO
                                X                 Y                 Z
Electronic contribution:     -0.392550034       0.668186460      -4.908574694
Nuclear contribution   :      0.317249258      -0.542597211       3.988247416
                        -----------------------------------------
Total Dipole Moment    :     -0.075300776       0.125589250      -0.920327278
                        -----------------------------------------
Magnitude (a.u.)       :      0.931904053
Magnitude (Debye)      :      2.368711859

Rotational constants in cm-1:             0.004743             0.004736             0.002765
Rotational constants in MHz :           142.201137           141.976555            82.890725

                             ****ORCA TERMINATED NORMALLY****
TOTAL RUN TIME: 0 days 0 hours 2 minutes 13 seconds 104 msec
