                         Program Version 6.0.0  -   RELEASE   -
|  1> ! RI BP86 def2-SVP D3BJ TIGHTSCF Opt
|  2> %pal
|  3> nprocs 6
|  4> end
|  5>
|  6> * xyz 0 1
|  7> C     -0.688204    2.811834    2.721060
|  8> O     -1.331042    2.142919    1.634325
|  9> C     -0.663068    2.381186    0.462902
| 10> C     -0.841672    3.609267   -0.180453
| 11> C     -0.214613    3.852105   -1.399506
| 12> C      0.573176    2.861933   -1.979723
| 13> C      0.730189    1.627268   -1.343445
| 14> C      0.112895    1.364400   -0.109412
| 15> P      0.270250   -0.224968    0.735228
| 16> O      0.750568   -0.046189    2.173717
| 17> C     -1.371790   -0.989681    0.715794
| 18> C     -1.895989   -1.487565    1.922175
| 19> C     -3.160792   -2.071672    1.966647
| 20> C     -3.917431   -2.170727    0.803536
| 21> C     -3.412151   -1.681367   -0.401903
| 22> C     -2.149927   -1.078599   -0.446780
| 23> O     -1.588406   -0.633876   -1.612561
| 24> C     -2.490589    0.050738   -2.479359
| 25> C      1.427214   -1.302679   -0.144679
| 26> C      1.035189   -2.521941   -0.720478
| 27> C      1.959288   -3.339421   -1.378499
| 28> C      3.294114   -2.955507   -1.469050
| 29> C      3.708323   -1.759252   -0.890870
| 30> C      2.784684   -0.955637   -0.216352
| 31> O      3.201385    0.236730    0.313161
| 32> C      3.951489    0.022386    1.510477
| 33> H     -0.930409    3.879598    2.709702
| 34> H     -1.075155    2.386108    3.651625
| 35> H      0.398606    2.670808    2.707991
| 36> H     -1.476106    4.370640    0.263812
| 37> H     -0.345406    4.808150   -1.898838
| 38> H      1.063313    3.044528   -2.932804
| 39> H      1.335757    0.867844   -1.830523
| 40> H     -1.310026   -1.407022    2.836684
| 41> H     -3.551983   -2.447912    2.908376
| 42> H     -4.900053   -2.634393    0.832964
| 43> H     -4.011497   -1.798244   -1.299215
| 44> H     -3.128909    0.752465   -1.930837
| 45> H     -1.894460    0.627409   -3.193047
| 46> H     -3.093135   -0.662450   -3.050086
| 47> H      0.003740   -2.858112   -0.664506
| 48> H      1.631919   -4.276729   -1.822054
| 49> H      4.009630   -3.586348   -1.989429
| 50> H      4.746317   -1.449795   -0.971731
| 51> H      4.970095   -0.299613    1.270652
| 52> H      4.013664    0.976990    2.041322
| 53> H      3.471011   -0.705607    2.173994
| 54> **                         ****END OF INPUT****
 Total Charge           Charge          ....    0
 Multiplicity           Mult            ....    1
 Number of Electrons    NEL             ....  194
Dispersion correction           -0.114656219
FINAL SINGLE POINT ENERGY     -1454.337383933600
Dispersion correction             ... done (  0.1 sec)
Dispersion correction           -0.115606581
FINAL SINGLE POINT ENERGY     -1454.349154146684
Dispersion correction             ... done (  0.1 sec)
Dispersion correction           -0.116619200
FINAL SINGLE POINT ENERGY     -1454.352284787367
Dispersion correction             ... done (  0.1 sec)
FINAL SINGLE POINT ENERGY     -1454.352815051145
FINAL SINGLE POINT ENERGY     -1454.353057980572
FINAL SINGLE POINT ENERGY     -1454.353951189665
FINAL SINGLE POINT ENERGY     -1454.354216384064
FINAL SINGLE POINT ENERGY     -1454.354671301865
FINAL SINGLE POINT ENERGY     -1454.354818538843
FINAL SINGLE POINT ENERGY     -1454.354921906653
FINAL SINGLE POINT ENERGY     -1454.355003559045
FINAL SINGLE POINT ENERGY     -1454.355038649787
FINAL SINGLE POINT ENERGY     -1454.355062085952
Dispersion correction             ... done (  0.1 sec)
Dispersion correction           -0.115342912
FINAL SINGLE POINT ENERGY     -1454.355071006479
Dispersion correction             ... done (  0.1 sec)
Dispersion correction           -0.115328733
FINAL SINGLE POINT ENERGY     -1454.355072904011
Dispersion correction             ... done (  0.1 sec)
                    ***********************HURRAY********************

CARTESIAN COORDINATES (ANGSTROEM)
---------------------------------
  C     -0.798996    2.511788    2.874353
  O     -1.404161    2.110671    1.636544
  C     -0.685123    2.399691    0.503897
  C     -0.860277    3.640909   -0.137088
  C     -0.186881    3.913045   -1.336858
  C      0.661783    2.945805   -1.904368
  C      0.836848    1.708798   -1.267902
  C      0.176572    1.426777   -0.056838
  P      0.352031   -0.165940    0.832895
  O      0.870177   -0.056641    2.265683
  C     -1.314694   -0.915327    0.796791
  C     -1.833645   -1.383041    2.013663
  C     -3.133098   -1.911327    2.080046
  C     -3.916148   -1.958197    0.916234
  C     -3.416500   -1.491212   -0.312380
  C     -2.108087   -0.971818   -0.376032
  O     -1.515422   -0.514233   -1.513291
  C     -2.283097   -0.400874   -2.698683
  C      1.408559   -1.238561   -0.213343
  C      0.936145   -2.429197   -0.800314
  C      1.808674   -3.276220   -1.500122
  C      3.167791   -2.937931   -1.619982
  C      3.654565   -1.757241   -1.038815
  C      2.780586   -0.907994   -0.334918
  O      3.236601    0.277047    0.185058
  C      3.880189    0.185869    1.465930
  H     -0.586573    3.604558    2.879292
  H     -1.533531    2.280030    3.668372
  H      0.130054    1.928959    3.047495
  H     -1.545798    4.372649    0.316040
  H     -0.330992    4.883605   -1.836487
  H      1.187352    3.155410   -2.848230
  H      1.486803    0.946214   -1.719413
  H     -1.191604   -1.301140    2.904643
  H     -3.535619   -2.275990    3.036571
  H     -4.939245   -2.363338    0.956046
  H     -4.047519   -1.537936   -1.210267
  H     -3.175369    0.244908   -2.545370
  H     -1.620699    0.067678   -3.449247
  H     -2.614127   -1.395186   -3.073395
  H     -0.124543   -2.699020   -0.694443
  H      1.427185   -4.204333   -1.951632
  H      3.854486   -3.597093   -2.173279
  H      4.711848   -1.466962   -1.131398
  H      4.737986   -0.522457    1.433170
  H      4.254463    1.200345    1.698045
  H      3.141054   -0.125548    2.233331

 Multiplicity           Mult            ....    1
 Number of Electrons    NEL             ....  194
 Basis Dimension        Dim             ....  473

ORBITAL ENERGIES
----------------

  NO   OCC          E(Eh)            E(eV)
   0   2.0000     -76.417172     -2079.4170
   1   2.0000     -18.822086      -512.1750
   2   2.0000     -18.793354      -511.3932
   3   2.0000     -18.788533      -511.2620
   4   2.0000     -18.715652      -509.2788
   5   2.0000      -9.982971      -271.6504
   6   2.0000      -9.977422      -271.4994
   7   2.0000      -9.975770      -271.4545
   8   2.0000      -9.970136      -271.3012
   9   2.0000      -9.949324      -270.7349
  10   2.0000      -9.946354      -270.6541
  11   2.0000      -9.928274      -270.1621
  12   2.0000      -9.927387      -270.1379
  13   2.0000      -9.925845      -270.0960
  14   2.0000      -9.923286      -270.0263
  15   2.0000      -9.922678      -270.0098
  16   2.0000      -9.922435      -270.0032
  17   2.0000      -9.922412      -270.0026
  18   2.0000      -9.922342      -270.0006
  19   2.0000      -9.921663      -269.9822
  20   2.0000      -9.920388      -269.9475
  21   2.0000      -9.917541      -269.8700
  22   2.0000      -9.917476      -269.8682
  23   2.0000      -9.917239      -269.8618
  24   2.0000      -9.917117      -269.8585
  25   2.0000      -9.914988      -269.8005
  26   2.0000      -6.373530      -173.4326
  27   2.0000      -4.595087      -125.0387
  28   2.0000      -4.594810      -125.0311
  29   2.0000      -4.594506      -125.0229
  30   2.0000      -0.982374       -26.7318
  31   2.0000      -0.954206       -25.9653
  32   2.0000      -0.949629       -25.8407
  33   2.0000      -0.846758       -23.0415
  34   2.0000      -0.774054       -21.0631
  35   2.0000      -0.771072       -20.9819
  36   2.0000      -0.767643       -20.8886
  37   2.0000      -0.697861       -18.9898
  38   2.0000      -0.683177       -18.5902
  39   2.0000      -0.675564       -18.3830
  40   2.0000      -0.673169       -18.3179
  41   2.0000      -0.671169       -18.2634
  42   2.0000      -0.669585       -18.2203
  43   2.0000      -0.629799       -17.1377
  44   2.0000      -0.612198       -16.6588
  45   2.0000      -0.607644       -16.5348
  46   2.0000      -0.581059       -15.8114
  47   2.0000      -0.554033       -15.0760
  48   2.0000      -0.545511       -14.8441
  49   2.0000      -0.535256       -14.5651
  50   2.0000      -0.529344       -14.4042
  51   2.0000      -0.524085       -14.2611
  52   2.0000      -0.501504       -13.6466
  53   2.0000      -0.485196       -13.2029
  54   2.0000      -0.471112       -12.8196
  55   2.0000      -0.460805       -12.5391
  56   2.0000      -0.440271       -11.9804
  57   2.0000      -0.435784       -11.8583
  58   2.0000      -0.432018       -11.7558
  59   2.0000      -0.427761       -11.6400
  60   2.0000      -0.425777       -11.5860
  61   2.0000      -0.423224       -11.5165
  62   2.0000      -0.414460       -11.2780
  63   2.0000      -0.407352       -11.0846
  64   2.0000      -0.401366       -10.9217
  65   2.0000      -0.394607       -10.7378
  66   2.0000      -0.390344       -10.6218
  67   2.0000      -0.386545       -10.5184
  68   2.0000      -0.380347       -10.3498
  69   2.0000      -0.377316       -10.2673
  70   2.0000      -0.374179       -10.1819
  71   2.0000      -0.368119       -10.0170
  72   2.0000      -0.366729        -9.9792
  73   2.0000      -0.344986        -9.3875
  74   2.0000      -0.343068        -9.3353
  75   2.0000      -0.334935        -9.1140
  76   2.0000      -0.330253        -8.9866
  77   2.0000      -0.325824        -8.8661
  78   2.0000      -0.322173        -8.7668
  79   2.0000      -0.319769        -8.7014
  80   2.0000      -0.313832        -8.5398
  81   2.0000      -0.311260        -8.4698
  82   2.0000      -0.305594        -8.3156
  83   2.0000      -0.296338        -8.0638
  84   2.0000      -0.292132        -7.9493
  85   2.0000      -0.289445        -7.8762
  86   2.0000      -0.286804        -7.8043
  87   2.0000      -0.241408        -6.5691
  88   2.0000      -0.239267        -6.5108
  89   2.0000      -0.232822        -6.3354
  90   2.0000      -0.228512        -6.2181
  91   2.0000      -0.222043        -6.0421
  92   2.0000      -0.219620        -5.9762
  93   2.0000      -0.217751        -5.9253
  94   2.0000      -0.213411        -5.8072
  95   2.0000      -0.206446        -5.6177
  96   2.0000      -0.203572        -5.5395
  97   0.0000      -0.063256        -1.7213
  98   0.0000      -0.057058        -1.5526
  99   0.0000      -0.047214        -1.2848
 100   0.0000      -0.044505        -1.2110
 101   0.0000      -0.037704        -1.0260

MULLIKEN ATOMIC CHARGES
-----------------------
   0 C :    0.131634
   1 O :   -0.308743
   2 C :    0.103037
   3 C :   -0.012692
   4 C :    0.000587
   5 C :    0.005701
   6 C :   -0.014347
   7 C :   -0.088949
   8 P :    0.690456
   9 O :   -0.454895
  10 C :   -0.142987
  11 C :   -0.026342
  12 C :    0.012042
  13 C :    0.001871
  14 C :   -0.081381
  15 C :    0.172243
  16 O :   -0.267479
  17 C :    0.108311
  18 C :   -0.131943
  19 C :   -0.019070
  20 C :    0.013674
  21 C :    0.003244
  22 C :   -0.011326
  23 C :    0.101740
  24 O :   -0.313688
  25 C :    0.129091
  26 H :    0.012965
  27 H :    0.042292
  28 H :    0.052725
  29 H :   -0.008778
  30 H :    0.003510
  31 H :   -0.001732
  32 H :    0.012909
  33 H :    0.016323
  34 H :    0.001514
  35 H :    0.005011
  36 H :   -0.015802
  37 H :    0.046506
  38 H :    0.059643
  39 H :    0.040111
  40 H :    0.015133
  41 H :    0.000702
  42 H :    0.006310
  43 H :   -0.005760
  44 H :    0.015279
  45 H :    0.044290
  46 H :    0.057057
Sum of atomic charges:   -0.0000000

LOEWDIN ATOMIC CHARGES
----------------------
   0 C :    0.060401
   1 O :   -0.118498
   2 C :    0.037574
   3 C :   -0.049860
   4 C :   -0.023183
   5 C :   -0.045582
   6 C :   -0.012170
   7 C :   -0.192618
   8 P :    0.908854
   9 O :   -0.478444
  10 C :   -0.207061
  11 C :   -0.005490
  12 C :   -0.050862
  13 C :   -0.014435
  14 C :   -0.082270
  15 C :    0.035188
  16 O :   -0.070323
  17 C :    0.060249
  18 C :   -0.198077
  19 C :   -0.018119
  20 C :   -0.042325
  21 C :   -0.019321
  22 C :   -0.048818
  23 C :    0.033883
  24 O :   -0.118544
  25 C :    0.062702
  26 H :    0.008400
  27 H :    0.026450
  28 H :    0.015387
  29 H :    0.036133
  30 H :    0.033124
  31 H :    0.032203
  32 H :    0.035883
  33 H :    0.037492
  34 H :    0.033024
  35 H :    0.033964
  36 H :    0.031907
  37 H :    0.023146
  38 H :    0.035519
  39 H :    0.018872
  40 H :    0.036050
  41 H :    0.033365
  42 H :    0.034541
  43 H :    0.037146
  44 H :    0.008831
  45 H :    0.027574
  46 H :    0.018138

  Mayer bond orders larger than 0.100000
B(  0-C ,  1-O ) :   0.9320 B(  0-C , 26-H ) :   0.9557 B(  0-C , 27-H ) :   0.9758
B(  0-C , 28-H ) :   0.9386 B(  1-O ,  2-C ) :   1.1246 B(  2-C ,  3-C ) :   1.3912
B(  2-C ,  7-C ) :   1.3600 B(  3-C ,  4-C ) :   1.3474 B(  3-C , 29-H ) :   0.9747
B(  4-C ,  5-C ) :   1.3580 B(  4-C , 30-H ) :   0.9719 B(  5-C ,  6-C ) :   1.3881
B(  5-C , 31-H ) :   0.9762 B(  6-C ,  7-C ) :   1.3824 B(  6-C , 32-H ) :   0.9574
B(  7-C ,  8-P ) :   0.8723 B(  8-P ,  9-O ) :   1.7778 B(  8-P , 10-C ) :   0.8784
B(  8-P , 18-C ) :   0.8510 B( 10-C , 11-C ) :   1.4146 B( 10-C , 15-C ) :   1.3157
B( 11-C , 12-C ) :   1.3447 B( 11-C , 33-H ) :   0.9659 B( 12-C , 13-C ) :   1.3774
B( 12-C , 34-H ) :   0.9821 B( 13-C , 14-C ) :   1.3511 B( 13-C , 35-H ) :   0.9715
B( 14-C , 15-C ) :   1.3200 B( 14-C , 36-H ) :   0.9779 B( 15-C , 16-O ) :   1.1679
B( 16-O , 17-C ) :   0.9685 B( 17-C , 37-H ) :   0.9594 B( 17-C , 38-H ) :   0.9701
B( 17-C , 39-H ) :   0.9586 B( 18-C , 19-C ) :   1.3849 B( 18-C , 23-C ) :   1.3560
B( 19-C , 20-C ) :   1.3798 B( 19-C , 40-H ) :   0.9591 B( 20-C , 21-C ) :   1.3642
B( 20-C , 41-H ) :   0.9760 B( 21-C , 22-C ) :   1.3454 B( 21-C , 42-H ) :   0.9711
B( 22-C , 23-C ) :   1.3897 B( 22-C , 43-H ) :   0.9745 B( 23-C , 24-O ) :   1.1119
B( 24-O , 25-C ) :   0.9289 B( 25-C , 44-H ) :   0.9578 B( 25-C , 45-H ) :   0.9760
B( 25-C , 46-H ) :   0.9400

Dispersion correction           -0.115328278
FINAL SINGLE POINT ENERGY     -1454.355073562127

DIPOLE MOMENT
-------------

Method             : SCF
Type of density    : Electron Density
Multiplicity       :   1
Irrep              :   0
Energy             : -1454.2397452841819359 Eh
Relativity type    :
Basis              : AO
                                X                 Y                 Z
Electronic contribution:      0.898136375      -1.930436539       1.489076452
Nuclear contribution   :     -1.353519031       1.760302518      -2.731873575
                        -----------------------------------------
Total Dipole Moment    :     -0.455382655      -0.170134021      -1.242797123
                        -----------------------------------------
Magnitude (a.u.)       :      1.334490029
Magnitude (Debye)      :      3.392004086

Rotational constants in cm-1:             0.007935             0.006659             0.005346
Rotational constants in MHz :           237.878366           199.639779           160.270999

                             ****ORCA TERMINATED NORMALLY****
TOTAL RUN TIME: 0 days 0 hours 7 minutes 50 seconds 525 msec
