                         Program Version 6.0.0  -   RELEASE   -
|  1> ! RIJONX B3LYP def2-SVP D3BJ TIGHTSCF Opt
|  2> %pal
|  3> nprocs 6
|  4> end
|  5>
|  6> * xyz 0 1
|  7> C     -1.278615    3.879298    0.042899
|  8> C     -1.131055    2.694004   -0.682475
|  9> C     -0.183221    1.722626   -0.303978
| 10> C      0.614610    1.982465    0.822763
| 11> C      0.467292    3.168918    1.548591
| 12> C     -0.477167    4.105269    1.152238
| 13> F     -0.617037    5.239839    1.849618
| 14> P     -0.066291    0.211649   -1.316700
| 15> C      1.477665   -0.579558   -0.757663
| 16> C      2.686409   -0.135530   -1.329505
| 17> C      3.910731   -0.694632   -0.953602
| 18> C      3.937032   -1.705398   -0.004037
| 19> C      2.763225   -2.166117    0.575418
| 20> C      1.537950   -1.606182    0.199418
| 21> F      5.108920   -2.242346    0.358616
| 22> C     -1.381112   -0.866358   -0.659832
| 23> C     -2.073954   -0.627197    0.538654
| 24> C     -3.074409   -1.501161    0.976233
| 25> C     -3.391084   -2.619473    0.217979
| 26> C     -2.726880   -2.882166   -0.971070
| 27> C     -1.727578   -2.008659   -1.408386
| 28> F     -4.348499   -3.455285    0.639792
| 29> H     -2.011438    4.623026   -0.253019
| 30> H     -1.769133    2.534477   -1.550601
| 31> H      1.361027    1.269700    1.163724
| 32> H      1.085448    3.364618    2.419151
| 33> H      2.685812    0.656888   -2.076705
| 34> H      4.838440   -0.347325   -1.396843
| 35> H      2.804687   -2.958475    1.316187
| 36> H      0.639062   -1.988196    0.676382
| 37> H     -1.849037    0.236332    1.159267
| 38> H     -3.606199   -1.312585    1.903556
| 39> H     -2.988224   -3.761058   -1.551566
| 40> H     -1.217377   -2.231411   -2.344501
| 41> **                         ****END OF INPUT****
 Total Charge           Charge          ....    0
 Multiplicity           Mult            ....    1
 Number of Electrons    NEL             ....  162
Dispersion correction           -0.085921482
FINAL SINGLE POINT ENERGY     -1332.674515990082
Dispersion correction             ... done (  0.1 sec)
Dispersion correction           -0.086664196
FINAL SINGLE POINT ENERGY     -1332.676616641034
Dispersion correction             ... done (  0.1 sec)
Dispersion correction           -0.086867334
FINAL SINGLE POINT ENERGY     -1332.677147433172
Dispersion correction             ... done (  0.1 sec)
FINAL SINGLE POINT ENERGY     -1332.677253958455
Dispersion correction             ... done (  0.1 sec)
Dispersion correction           -0.086698489
FINAL SINGLE POINT ENERGY     -1332.677271443332
Dispersion correction             ... done (  0.1 sec)
Dispersion correction           -0.086726884
FINAL SINGLE POINT ENERGY     -1332.677276343743
Dispersion correction             ... done (  0.1 sec)
                    ***********************HURRAY********************

CARTESIAN COORDINATES (ANGSTROEM)
---------------------------------
  C     -1.279303    3.863290    0.057135
  C     -1.116898    2.713508   -0.716255
  C     -0.187976    1.720294   -0.357711
  C      0.596026    1.917297    0.790546
  C      0.453662    3.069344    1.568178
  C     -0.486005    4.025899    1.191839
  F     -0.627473    5.132196    1.934433
  P     -0.075587    0.232854   -1.449213
  C      1.464258   -0.565060   -0.811092
  C      2.684755   -0.146737   -1.370851
  C      3.898581   -0.680892   -0.937702
  C      3.884166   -1.659905    0.054600
  C      2.692965   -2.108560    0.619655
  C      1.486079   -1.555129    0.184345
  F      5.044684   -2.184692    0.470930
  C     -1.376290   -0.854276   -0.713172
  C     -2.015931   -0.602003    0.511039
  C     -2.989720   -1.473774    1.005223
  C     -3.317890   -2.607895    0.266695
  C     -2.704530   -2.887401   -0.953544
  C     -1.743179   -2.001151   -1.439954
  F     -4.249313   -3.448684    0.737021
  H     -2.000080    4.638538   -0.209923
  H     -1.725267    2.584171   -1.615951
  H      1.327703    1.163006    1.085912
  H      1.059323    3.234891    2.461419
  H      2.685402    0.612766   -2.157907
  H      4.851909   -0.360144   -1.362153
  H      2.723034   -2.880379    1.391361
  H      0.551161   -1.900298    0.629663
  H     -1.752810    0.284614    1.090926
  H     -3.495634   -1.287265    1.954652
  H     -2.993704   -3.782635   -1.507444
  H     -1.266120   -2.205788   -2.402697

 Multiplicity           Mult            ....    1
 Number of Electrons    NEL             ....  162
 Basis Dimension        Dim             ....  372

ORBITAL ENERGIES
----------------

  NO   OCC          E(Eh)            E(eV)
   0   2.0000     -77.061902     -2096.9610
   1   2.0000     -24.699798      -672.1157
   2   2.0000     -24.699763      -672.1147
   3   2.0000     -24.699705      -672.1131
   4   2.0000     -10.278236      -279.6850
   5   2.0000     -10.278231      -279.6849
   6   2.0000     -10.278170      -279.6832
   7   2.0000     -10.207962      -277.7728
   8   2.0000     -10.207943      -277.7722
   9   2.0000     -10.207937      -277.7721
  10   2.0000     -10.206384      -277.7298
  11   2.0000     -10.206351      -277.7289
  12   2.0000     -10.206331      -277.7284
  13   2.0000     -10.203195      -277.6431
  14   2.0000     -10.203184      -277.6428
  15   2.0000     -10.203172      -277.6424
  16   2.0000     -10.202789      -277.6320
  17   2.0000     -10.202759      -277.6312
  18   2.0000     -10.202733      -277.6305
  19   2.0000     -10.201568      -277.5988
  20   2.0000     -10.201552      -277.5983
  21   2.0000     -10.201482      -277.5964
  22   2.0000      -6.557346      -178.4345
  23   2.0000      -4.722790      -128.5137
  24   2.0000      -4.722786      -128.5136
  25   2.0000      -4.719867      -128.4341
  26   2.0000      -1.210488       -32.9391
  27   2.0000      -1.210438       -32.9377
  28   2.0000      -1.210364       -32.9357
  29   2.0000      -0.867980       -23.6189
  30   2.0000      -0.860419       -23.4132
  31   2.0000      -0.860400       -23.4127
  32   2.0000      -0.775205       -21.0944
  33   2.0000      -0.756877       -20.5957
  34   2.0000      -0.756860       -20.5952
  35   2.0000      -0.756654       -20.5896
  36   2.0000      -0.742726       -20.2106
  37   2.0000      -0.742712       -20.2102
  38   2.0000      -0.653819       -17.7913
  39   2.0000      -0.628115       -17.0919
  40   2.0000      -0.627850       -17.0847
  41   2.0000      -0.627811       -17.0836
  42   2.0000      -0.608231       -16.5508
  43   2.0000      -0.608225       -16.5507
  44   2.0000      -0.569380       -15.4936
  45   2.0000      -0.549865       -14.9626
  46   2.0000      -0.549847       -14.9621
  47   2.0000      -0.547011       -14.8849
  48   2.0000      -0.501320       -13.6416
  49   2.0000      -0.501300       -13.6411
  50   2.0000      -0.500264       -13.6129
  51   2.0000      -0.480525       -13.0758
  52   2.0000      -0.480487       -13.0747
  53   2.0000      -0.472208       -12.8494
  54   2.0000      -0.472164       -12.8482
  55   2.0000      -0.472093       -12.8463
  56   2.0000      -0.455368       -12.3912
  57   2.0000      -0.451120       -12.2756
  58   2.0000      -0.451113       -12.2754
  59   2.0000      -0.439241       -11.9524
  60   2.0000      -0.438014       -11.9190
  61   2.0000      -0.437983       -11.9181
  62   2.0000      -0.425407       -11.5759
  63   2.0000      -0.407071       -11.0770
  64   2.0000      -0.406913       -11.0727
  65   2.0000      -0.406899       -11.0723
  66   2.0000      -0.375303       -10.2125
  67   2.0000      -0.375216       -10.2101
  68   2.0000      -0.370489       -10.0815
  69   2.0000      -0.353323        -9.6144
  70   2.0000      -0.353320        -9.6143
  71   2.0000      -0.352405        -9.5894
  72   2.0000      -0.343271        -9.3409
  73   2.0000      -0.343249        -9.3403
  74   2.0000      -0.279878        -7.6159
  75   2.0000      -0.276163        -7.5148
  76   2.0000      -0.271018        -7.3748
  77   2.0000      -0.270997        -7.3742
  78   2.0000      -0.258770        -7.0415
  79   2.0000      -0.258650        -7.0382
  80   2.0000      -0.222308        -6.0493
  81   0.0000      -0.036168        -0.9842
  82   0.0000      -0.029427        -0.8008
  83   0.0000      -0.029311        -0.7976
  84   0.0000      -0.019032        -0.5179
  85   0.0000      -0.018998        -0.5170

MULLIKEN ATOMIC CHARGES
-----------------------
   0 C :   -0.045354
   1 C :    0.026857
   2 C :   -0.160699
   3 C :    0.017937
   4 C :   -0.040509
   5 C :    0.288970
   6 F :   -0.194533
   7 P :    0.370877
   8 C :   -0.160427
   9 C :    0.027032
  10 C :   -0.045287
  11 C :    0.288897
  12 C :   -0.040411
  13 C :    0.017726
  14 F :   -0.194614
  15 C :   -0.160360
  16 C :    0.017398
  17 C :   -0.040362
  18 C :    0.288801
  19 C :   -0.045191
  20 C :    0.026864
  21 F :   -0.194676
  22 H :   -0.005646
  23 H :   -0.007004
  24 H :    0.004073
  25 H :   -0.007759
  26 H :   -0.006997
  27 H :   -0.005615
  28 H :   -0.007766
  29 H :    0.004116
  30 H :    0.004136
  31 H :   -0.007810
  32 H :   -0.005648
  33 H :   -0.007019
Sum of atomic charges:   -0.0000000

LOEWDIN ATOMIC CHARGES
----------------------
   0 C :   -0.052172
   1 C :   -0.016156
   2 C :   -0.187646
   3 C :   -0.019205
   4 C :   -0.053049
   5 C :    0.084553
   6 F :   -0.063796
   7 P :    0.516888
   8 C :   -0.187605
   9 C :   -0.016113
  10 C :   -0.052104
  11 C :    0.084553
  12 C :   -0.053056
  13 C :   -0.019296
  14 F :   -0.063875
  15 C :   -0.187654
  16 C :   -0.019378
  17 C :   -0.053035
  18 C :    0.084511
  19 C :   -0.052098
  20 C :   -0.016144
  21 F :   -0.063941
  22 H :    0.037413
  23 H :    0.028932
  24 H :    0.031951
  25 H :    0.036986
  26 H :    0.028934
  27 H :    0.037430
  28 H :    0.036979
  29 H :    0.031943
  30 H :    0.031923
  31 H :    0.036969
  32 H :    0.037418
  33 H :    0.028936

  Mayer bond orders larger than 0.100000
B(  0-C ,  1-C ) :   1.3761 B(  0-C ,  5-C ) :   1.3544 B(  0-C , 22-H ) :   0.9894
B(  1-C ,  2-C ) :   1.3642 B(  1-C , 23-H ) :   0.9809 B(  2-C ,  3-C ) :   1.3777
B(  2-C ,  7-P ) :   0.9304 B(  3-C ,  4-C ) :   1.3539 B(  3-C , 24-H ) :   0.9785
B(  4-C ,  5-C ) :   1.3568 B(  4-C , 25-H ) :   0.9899 B(  5-C ,  6-F ) :   1.0760
B(  7-P ,  8-C ) :   0.9306 B(  7-P , 15-C ) :   0.9301 B(  8-C ,  9-C ) :   1.3640
B(  8-C , 13-C ) :   1.3778 B(  9-C , 10-C ) :   1.3761 B(  9-C , 26-H ) :   0.9809
B( 10-C , 11-C ) :   1.3543 B( 10-C , 27-H ) :   0.9894 B( 11-C , 12-C ) :   1.3571
B( 11-C , 14-F ) :   1.0758 B( 12-C , 13-C ) :   1.3534 B( 12-C , 28-H ) :   0.9899
B( 13-C , 29-H ) :   0.9787 B( 15-C , 16-C ) :   1.3782 B( 15-C , 20-C ) :   1.3637
B( 16-C , 17-C ) :   1.3533 B( 16-C , 30-H ) :   0.9787 B( 17-C , 18-C ) :   1.3573
B( 17-C , 31-H ) :   0.9898 B( 18-C , 19-C ) :   1.3542 B( 18-C , 21-F ) :   1.0758
B( 19-C , 20-C ) :   1.3765 B( 19-C , 32-H ) :   0.9894 B( 20-C , 33-H ) :   0.9809

Dispersion correction           -0.086738835
FINAL SINGLE POINT ENERGY     -1332.677277532367

DIPOLE MOMENT
-------------

Method             : SCF
Type of density    : Electron Density
Multiplicity       :   1
Irrep              :   0
Energy             : -1332.5905386973245186 Eh
Relativity type    :
Basis              : AO
                                X                 Y                 Z
Electronic contribution:      0.118726338      -0.337501929       2.141616849
Nuclear contribution   :     -0.123956488       0.356372399      -2.256037014
                        -----------------------------------------
Total Dipole Moment    :     -0.005230150       0.018870470      -0.114420164
                        -----------------------------------------
Magnitude (a.u.)       :      0.116083690
Magnitude (Debye)      :      0.295061292

Rotational constants in cm-1:             0.007385             0.007365             0.004249
Rotational constants in MHz :           221.382052           220.783268           127.377984

                             ****ORCA TERMINATED NORMALLY****
TOTAL RUN TIME: 0 days 0 hours 5 minutes 53 seconds 4 msec
