                         Program Version 6.0.0  -   RELEASE   -
|  1> ! RI BP86 def2-SVP D3BJ TIGHTSCF Opt
|  2> %pal
|  3> nprocs 6
|  4> end
|  5>
|  6> * xyz 0 1
|  7> C     -0.354281    1.604614   -0.251965
|  8> N     -0.985615    0.761620    0.745860
|  9> C     -1.612444   -0.386852    0.118983
| 10> N     -0.630079   -1.144464   -0.633253
| 11> C      0.002039   -0.305674   -1.634120
| 12> N      0.625315    0.842619   -1.003385
| 13> C      1.799489    0.499333   -0.226224
| 14> P      1.232683   -0.572262    1.108714
| 15> C     -0.098406    0.403905    1.834625
| 16> C      0.320463   -1.841722    0.209842
| 17> H      0.100204    2.492767    0.207708
| 18> H     -1.114465    2.010864   -0.933228
| 19> H     -2.419228   -0.054364   -0.548541
| 20> H     -2.118213   -1.018622    0.861772
| 21> H     -0.744947    0.029821   -2.366577
| 22> H      0.728473   -0.875488   -2.229332
| 23> H      2.284114    1.402622    0.161093
| 24> H      2.545809   -0.000364   -0.854012
| 25> H     -0.638180   -0.160458    2.603355
| 26> H      0.285860    1.302148    2.330917
| 27> H      0.988573   -2.465211   -0.394888
| 28> H     -0.197162   -2.524831    0.892656
| 29> **                         ****END OF INPUT****
 Total Charge           Charge          ....    0
 Multiplicity           Mult            ....    1
 Number of Electrons    NEL             ....   84
Dispersion correction           -0.047651434
FINAL SINGLE POINT ENERGY      -741.091750061421
Dispersion correction             ... done (  0.1 sec)
Dispersion correction           -0.047191443
FINAL SINGLE POINT ENERGY      -741.115268104008
Dispersion correction             ... done (  0.1 sec)
Dispersion correction           -0.046940075
FINAL SINGLE POINT ENERGY      -741.126194225469
Dispersion correction             ... done (  0.1 sec)
FINAL SINGLE POINT ENERGY      -741.127932538090
FINAL SINGLE POINT ENERGY      -741.128118237034
Dispersion correction             ... done (  0.1 sec)
Dispersion correction           -0.046809606
FINAL SINGLE POINT ENERGY      -741.128207811582
Dispersion correction             ... done (  0.1 sec)
Dispersion correction           -0.046812601
FINAL SINGLE POINT ENERGY      -741.128216368263
Dispersion correction             ... done (  0.1 sec)
                    ***********************HURRAY********************

CARTESIAN COORDINATES (ANGSTROEM)
---------------------------------
  C     -0.365979    1.610084   -0.263287
  N     -1.031804    0.793603    0.763133
  C     -1.624070   -0.382039    0.107820
  N     -0.662198   -1.181649   -0.665639
  C     -0.010643   -0.299146   -1.645309
  N      0.637806    0.878275   -1.049271
  C      1.793200    0.500119   -0.229750
  P      1.385145   -0.644222    1.249415
  C     -0.104209    0.406512    1.829128
  C      0.316406   -1.838098    0.205362
  H      0.117496    2.483014    0.223453
  H     -1.144118    1.986669   -0.961459
  H     -2.413180   -0.026108   -0.588619
  H     -2.099478   -1.027587    0.875899
  H     -0.787406    0.057834   -2.355262
  H      0.743549   -0.881032   -2.215520
  H      2.281191    1.417290    0.165599
  H      2.544463   -0.013852   -0.867784
  H     -0.652858   -0.168823    2.606153
  H      0.289954    1.319588    2.325893
  H      0.998657   -2.463975   -0.409966
  H     -0.211922   -2.526456    0.900013

 Multiplicity           Mult            ....    1
 Number of Electrons    NEL             ....   84
 Basis Dimension        Dim             ....  204

ORBITAL ENERGIES
----------------

  NO   OCC          E(Eh)            E(eV)
   0   2.0000     -76.323760     -2076.8751
   1   2.0000     -14.012648      -381.3035
   2   2.0000     -14.012564      -381.3012
   3   2.0000     -14.012399      -381.2968
   4   2.0000      -9.965466      -271.1741
   5   2.0000      -9.965461      -271.1740
   6   2.0000      -9.965454      -271.1738
   7   2.0000      -9.944732      -270.6099
   8   2.0000      -9.944651      -270.6077
   9   2.0000      -9.944627      -270.6070
  10   2.0000      -6.295766      -171.3165
  11   2.0000      -4.516659      -122.9045
  12   2.0000      -4.516656      -122.9045
  13   2.0000      -4.514232      -122.8385
  14   2.0000      -0.902473       -24.5575
  15   2.0000      -0.811388       -22.0790
  16   2.0000      -0.811336       -22.0776
  17   2.0000      -0.684746       -18.6329
  18   2.0000      -0.633117       -17.2280
  19   2.0000      -0.632994       -17.2246
  20   2.0000      -0.570428       -15.5221
  21   2.0000      -0.570398       -15.5213
  22   2.0000      -0.539083       -14.6692
  23   2.0000      -0.494209       -13.4481
  24   2.0000      -0.438139       -11.9224
  25   2.0000      -0.437626       -11.9084
  26   2.0000      -0.437583       -11.9072
  27   2.0000      -0.434926       -11.8349
  28   2.0000      -0.393905       -10.7187
  29   2.0000      -0.393778       -10.7152
  30   2.0000      -0.343698        -9.3525
  31   2.0000      -0.343638        -9.3509
  32   2.0000      -0.342345        -9.3157
  33   2.0000      -0.327785        -8.9195
  34   2.0000      -0.325900        -8.8682
  35   2.0000      -0.325868        -8.8673
  36   2.0000      -0.305833        -8.3221
  37   2.0000      -0.305637        -8.3168
  38   2.0000      -0.297321        -8.0905
  39   2.0000      -0.188918        -5.1407
  40   2.0000      -0.172479        -4.6934
  41   2.0000      -0.172438        -4.6923
  42   0.0000       0.017107         0.4655
  43   0.0000       0.017442         0.4746
  44   0.0000       0.021906         0.5961
  45   0.0000       0.049484         1.3465
  46   0.0000       0.057817         1.5733

MULLIKEN ATOMIC CHARGES
-----------------------
   0 C :    0.180240
   1 N :   -0.291865
   2 C :    0.180951
   3 N :   -0.291903
   4 C :    0.180269
   5 N :   -0.291347
   6 C :   -0.050137
   7 P :    0.070856
   8 C :   -0.049524
   9 C :   -0.049307
  10 H :    0.018950
  11 H :    0.017978
  12 H :    0.017667
  13 H :    0.019033
  14 H :    0.017858
  15 H :    0.019028
  16 H :    0.050330
  17 H :    0.050155
  18 H :    0.050240
  19 H :    0.050175
  20 H :    0.050198
  21 H :    0.050156
Sum of atomic charges:   -0.0000000

LOEWDIN ATOMIC CHARGES
----------------------
   0 C :    0.055792
   1 N :   -0.134626
   2 C :    0.055982
   3 N :   -0.134619
   4 C :    0.055842
   5 N :   -0.134378
   6 C :   -0.124106
   7 P :    0.336301
   8 C :   -0.124420
   9 C :   -0.124354
  10 H :    0.021488
  11 H :    0.022322
  12 H :    0.022289
  13 H :    0.021464
  14 H :    0.022349
  15 H :    0.021435
  16 H :    0.023528
  17 H :    0.023553
  18 H :    0.023530
  19 H :    0.023564
  20 H :    0.023562
  21 H :    0.023502

  Mayer bond orders larger than 0.100000
B(  0-C ,  1-N ) :   1.0333 B(  0-C ,  5-N ) :   1.0338 B(  0-C , 10-H ) :   0.9356
B(  0-C , 11-H ) :   0.9334 B(  1-N ,  2-C ) :   1.0336 B(  1-N ,  8-C ) :   0.9985
B(  2-C ,  3-N ) :   1.0334 B(  2-C , 12-H ) :   0.9333 B(  2-C , 13-H ) :   0.9356
B(  3-N ,  4-C ) :   1.0336 B(  3-N ,  9-C ) :   0.9984 B(  4-C ,  5-N ) :   1.0336
B(  4-C , 14-H ) :   0.9332 B(  4-C , 15-H ) :   0.9357 B(  5-N ,  6-C ) :   0.9982
B(  6-C ,  7-P ) :   0.9410 B(  6-C , 16-H ) :   0.9410 B(  6-C , 17-H ) :   0.9409
B(  7-P ,  8-C ) :   0.9412 B(  7-P ,  9-C ) :   0.9412 B(  8-C , 18-H ) :   0.9409
B(  8-C , 19-H ) :   0.9408 B(  9-C , 20-H ) :   0.9409 B(  9-C , 21-H ) :   0.9408

Dispersion correction           -0.046815001
FINAL SINGLE POINT ENERGY      -741.128218232666

DIPOLE MOMENT
-------------

Method             : SCF
Type of density    : Electron Density
Multiplicity       :   1
Irrep              :   0
Energy             :  -741.0814032320214437 Eh
Relativity type    :
Basis              : AO
                                X                 Y                 Z
Electronic contribution:      3.244011299      -1.511097664       2.928264499
Nuclear contribution   :     -3.394762021       1.581309898      -3.063299185
                        -----------------------------------------
Total Dipole Moment    :     -0.150750721       0.070212235      -0.135034686
                        -----------------------------------------
Magnitude (a.u.)       :      0.214219290
Magnitude (Debye)      :      0.544502163

Rotational constants in cm-1:             0.055142             0.046525             0.046517
Rotational constants in MHz :          1653.121349          1394.772163          1394.529679

                             ****ORCA TERMINATED NORMALLY****
TOTAL RUN TIME: 0 days 0 hours 0 minutes 53 seconds 208 msec
