                         Program Version 6.0.0  -   RELEASE   -
|  1> ! RI BP86 def2-SVP D3BJ TIGHTSCF Opt
|  2> %pal
|  3> nprocs 6
|  4> end
|  5>
|  6> * xyz 0 1
|  7> C     -1.278615    3.879298    0.042899
|  8> C     -1.131055    2.694004   -0.682475
|  9> C     -0.183221    1.722626   -0.303978
| 10> C      0.614610    1.982465    0.822763
| 11> C      0.467292    3.168918    1.548591
| 12> C     -0.477167    4.105269    1.152238
| 13> F     -0.617037    5.239839    1.849618
| 14> P     -0.066291    0.211649   -1.316700
| 15> C      1.477665   -0.579558   -0.757663
| 16> C      2.686409   -0.135530   -1.329505
| 17> C      3.910731   -0.694632   -0.953602
| 18> C      3.937032   -1.705398   -0.004037
| 19> C      2.763225   -2.166117    0.575418
| 20> C      1.537950   -1.606182    0.199418
| 21> F      5.108920   -2.242346    0.358616
| 22> C     -1.381112   -0.866358   -0.659832
| 23> C     -2.073954   -0.627197    0.538654
| 24> C     -3.074409   -1.501161    0.976233
| 25> C     -3.391084   -2.619473    0.217979
| 26> C     -2.726880   -2.882166   -0.971070
| 27> C     -1.727578   -2.008659   -1.408386
| 28> F     -4.348499   -3.455285    0.639792
| 29> H     -2.011438    4.623026   -0.253019
| 30> H     -1.769133    2.534477   -1.550601
| 31> H      1.361027    1.269700    1.163724
| 32> H      1.085448    3.364618    2.419151
| 33> H      2.685812    0.656888   -2.076705
| 34> H      4.838440   -0.347325   -1.396843
| 35> H      2.804687   -2.958475    1.316187
| 36> H      0.639062   -1.988196    0.676382
| 37> H     -1.849037    0.236332    1.159267
| 38> H     -3.606199   -1.312585    1.903556
| 39> H     -2.988224   -3.761058   -1.551566
| 40> H     -1.217377   -2.231411   -2.344501
| 41> **                         ****END OF INPUT****
 Total Charge           Charge          ....    0
 Multiplicity           Mult            ....    1
 Number of Electrons    NEL             ....  162
Dispersion correction           -0.081982627
FINAL SINGLE POINT ENERGY     -1333.299985470884
Dispersion correction             ... done (  0.1 sec)
Dispersion correction           -0.082540914
FINAL SINGLE POINT ENERGY     -1333.304718656252
Dispersion correction             ... done (  0.1 sec)
Dispersion correction           -0.082755024
FINAL SINGLE POINT ENERGY     -1333.305360186760
Dispersion correction             ... done (  0.1 sec)
FINAL SINGLE POINT ENERGY     -1333.305549759917
FINAL SINGLE POINT ENERGY     -1333.305582270906
Dispersion correction             ... done (  0.1 sec)
Dispersion correction           -0.082754340
FINAL SINGLE POINT ENERGY     -1333.305589039713
Dispersion correction             ... done (  0.1 sec)
Dispersion correction           -0.082757058
FINAL SINGLE POINT ENERGY     -1333.305590592485
Dispersion correction             ... done (  0.1 sec)
                    ***********************HURRAY********************

CARTESIAN COORDINATES (ANGSTROEM)
---------------------------------
  C     -1.290220    3.864578    0.071010
  C     -1.130715    2.715725   -0.716260
  C     -0.188194    1.720571   -0.371514
  C      0.612273    1.911851    0.774924
  C      0.473930    3.063526    1.565243
  C     -0.479486    4.024226    1.203900
  F     -0.616840    5.131667    1.959120
  P     -0.079436    0.236649   -1.473675
  C      1.459051   -0.563437   -0.826293
  C      2.689445   -0.133717   -1.373044
  C      3.905645   -0.667567   -0.925176
  C      3.882823   -1.658114    0.067058
  C      2.679537   -2.117749    0.617807
  C      1.470414   -1.563612    0.169059
  F      5.046902   -2.183005    0.497523
  C     -1.378513   -0.850613   -0.727365
  C     -2.025024   -0.582521    0.497853
  C     -2.998270   -1.458247    1.004358
  C     -3.317172   -2.612513    0.277579
  C     -2.694349   -2.906955   -0.943745
  C     -1.734756   -2.015913   -1.443551
  F     -4.248302   -3.458627    0.760422
  H     -2.022534    4.643946   -0.184504
  H     -1.752467    2.587189   -1.616897
  H      1.354523    1.150083    1.056541
  H      1.093557    3.226554    2.459002
  H      2.694719    0.636359   -2.161212
  H      4.869623   -0.338095   -1.338923
  H      2.703197   -2.899235    1.391157
  H      0.522100   -1.914357    0.602815
  H     -1.764727    0.321857    1.067857
  H     -3.511521   -1.260320    1.956602
  H     -2.976706   -3.819118   -1.488942
  H     -1.248507   -2.231069   -2.408724

 Multiplicity           Mult            ....    1
 Number of Electrons    NEL             ....  162
 Basis Dimension        Dim             ....  372

ORBITAL ENERGIES
----------------

  NO   OCC          E(Eh)            E(eV)
   0   2.0000     -76.355788     -2077.7466
   1   2.0000     -24.305291      -661.3806
   2   2.0000     -24.305266      -661.3799
   3   2.0000     -24.305179      -661.3775
   4   2.0000     -10.006062      -272.2788
   5   2.0000     -10.006043      -272.2783
   6   2.0000     -10.005960      -272.2760
   7   2.0000      -9.938716      -270.4462
   8   2.0000      -9.938691      -270.4455
   9   2.0000      -9.938668      -270.4449
  10   2.0000      -9.937063      -270.4012
  11   2.0000      -9.936986      -270.3991
  12   2.0000      -9.936973      -270.3988
  13   2.0000      -9.934816      -270.3401
  14   2.0000      -9.934789      -270.3394
  15   2.0000      -9.934724      -270.3376
  16   2.0000      -9.934510      -270.3318
  17   2.0000      -9.934490      -270.3312
  18   2.0000      -9.934454      -270.3302
  19   2.0000      -9.934067      -270.3197
  20   2.0000      -9.933988      -270.3176
  21   2.0000      -9.933983      -270.3174
  22   2.0000      -6.323836      -172.0803
  23   2.0000      -4.545285      -123.6835
  24   2.0000      -4.545280      -123.6834
  25   2.0000      -4.541679      -123.5854
  26   2.0000      -1.113459       -30.2988
  27   2.0000      -1.113417       -30.2976
  28   2.0000      -1.113312       -30.2948
  29   2.0000      -0.793092       -21.5811
  30   2.0000      -0.785637       -21.3783
  31   2.0000      -0.785605       -21.3774
  32   2.0000      -0.707399       -19.2493
  33   2.0000      -0.688773       -18.7425
  34   2.0000      -0.688735       -18.7414
  35   2.0000      -0.688418       -18.7328
  36   2.0000      -0.675454       -18.3800
  37   2.0000      -0.675423       -18.3792
  38   2.0000      -0.594914       -16.1884
  39   2.0000      -0.568938       -15.4816
  40   2.0000      -0.568851       -15.4792
  41   2.0000      -0.568808       -15.4781
  42   2.0000      -0.551001       -14.9935
  43   2.0000      -0.551001       -14.9935
  44   2.0000      -0.515956       -14.0399
  45   2.0000      -0.497277       -13.5316
  46   2.0000      -0.497250       -13.5309
  47   2.0000      -0.494109       -13.4454
  48   2.0000      -0.449807       -12.2399
  49   2.0000      -0.449766       -12.2388
  50   2.0000      -0.447534       -12.1780
  51   2.0000      -0.432419       -11.7667
  52   2.0000      -0.432356       -11.7650
  53   2.0000      -0.416341       -11.3292
  54   2.0000      -0.416278       -11.3275
  55   2.0000      -0.416073       -11.3219
  56   2.0000      -0.408446       -11.1144
  57   2.0000      -0.404706       -11.0126
  58   2.0000      -0.404696       -11.0123
  59   2.0000      -0.393707       -10.7133
  60   2.0000      -0.392447       -10.6790
  61   2.0000      -0.392400       -10.6777
  62   2.0000      -0.381265       -10.3747
  63   2.0000      -0.355343        -9.6694
  64   2.0000      -0.355314        -9.6686
  65   2.0000      -0.355035        -9.6610
  66   2.0000      -0.335521        -9.1300
  67   2.0000      -0.335373        -9.1260
  68   2.0000      -0.331482        -9.0201
  69   2.0000      -0.310703        -8.4547
  70   2.0000      -0.310680        -8.4540
  71   2.0000      -0.308414        -8.3924
  72   2.0000      -0.305869        -8.3231
  73   2.0000      -0.305842        -8.3224
  74   2.0000      -0.252301        -6.8654
  75   2.0000      -0.251624        -6.8470
  76   2.0000      -0.247183        -6.7262
  77   2.0000      -0.247165        -6.7257
  78   2.0000      -0.233930        -6.3655
  79   2.0000      -0.233748        -6.3606
  80   2.0000      -0.200007        -5.4425
  81   0.0000      -0.069608        -1.8941
  82   0.0000      -0.062651        -1.7048
  83   0.0000      -0.062462        -1.6997
  84   0.0000      -0.054377        -1.4797
  85   0.0000      -0.054342        -1.4787

MULLIKEN ATOMIC CHARGES
-----------------------
   0 C :   -0.059337
   1 C :    0.010924
   2 C :   -0.153392
   3 C :    0.000072
   4 C :   -0.053967
   5 C :    0.253553
   6 F :   -0.163874
   7 P :    0.308808
   8 C :   -0.153252
   9 C :    0.011463
  10 C :   -0.059247
  11 C :    0.253452
  12 C :   -0.053851
  13 C :   -0.000403
  14 F :   -0.163958
  15 C :   -0.152746
  16 C :   -0.000856
  17 C :   -0.053880
  18 C :    0.253381
  19 C :   -0.059160
  20 C :    0.011021
  21 F :   -0.164045
  22 H :    0.014781
  23 H :    0.012947
  24 H :    0.022625
  25 H :    0.012673
  26 H :    0.012976
  27 H :    0.014825
  28 H :    0.012680
  29 H :    0.022691
  30 H :    0.022728
  31 H :    0.012619
  32 H :    0.014774
  33 H :    0.012975
Sum of atomic charges:   -0.0000000

LOEWDIN ATOMIC CHARGES
----------------------
   0 C :   -0.058582
   1 C :   -0.023445
   2 C :   -0.186020
   3 C :   -0.026031
   4 C :   -0.059122
   5 C :    0.073272
   6 F :   -0.046667
   7 P :    0.501853
   8 C :   -0.185973
   9 C :   -0.023352
  10 C :   -0.058470
  11 C :    0.073268
  12 C :   -0.059151
  13 C :   -0.026186
  14 F :   -0.046759
  15 C :   -0.186042
  16 C :   -0.026303
  17 C :   -0.059128
  18 C :    0.073195
  19 C :   -0.058470
  20 C :   -0.023440
  21 F :   -0.046846
  22 H :    0.043307
  23 H :    0.035193
  24 H :    0.038081
  25 H :    0.042904
  26 H :    0.035198
  27 H :    0.043331
  28 H :    0.042896
  29 H :    0.038074
  30 H :    0.038030
  31 H :    0.042878
  32 H :    0.043311
  33 H :    0.035198

  Mayer bond orders larger than 0.100000
B(  0-C ,  1-C ) :   1.3767 B(  0-C ,  5-C ) :   1.3428 B(  0-C , 22-H ) :   0.9787
B(  1-C ,  2-C ) :   1.3546 B(  1-C , 23-H ) :   0.9702 B(  2-C ,  3-C ) :   1.3739
B(  2-C ,  7-P ) :   0.9349 B(  3-C ,  4-C ) :   1.3536 B(  3-C , 24-H ) :   0.9653
B(  4-C ,  5-C ) :   1.3438 B(  4-C , 25-H ) :   0.9790 B(  5-C ,  6-F ) :   1.1012
B(  7-P ,  8-C ) :   0.9354 B(  7-P , 15-C ) :   0.9345 B(  8-C ,  9-C ) :   1.3543
B(  8-C , 13-C ) :   1.3739 B(  9-C , 10-C ) :   1.3768 B(  9-C , 26-H ) :   0.9702
B( 10-C , 11-C ) :   1.3427 B( 10-C , 27-H ) :   0.9787 B( 11-C , 12-C ) :   1.3441
B( 11-C , 14-F ) :   1.1011 B( 12-C , 13-C ) :   1.3528 B( 12-C , 28-H ) :   0.9790
B( 13-C , 29-H ) :   0.9657 B( 15-C , 16-C ) :   1.3747 B( 15-C , 20-C ) :   1.3538
B( 16-C , 17-C ) :   1.3526 B( 16-C , 30-H ) :   0.9657 B( 17-C , 18-C ) :   1.3445
B( 17-C , 31-H ) :   0.9790 B( 18-C , 19-C ) :   1.3425 B( 18-C , 21-F ) :   1.1011
B( 19-C , 20-C ) :   1.3773 B( 19-C , 32-H ) :   0.9787 B( 20-C , 33-H ) :   0.9701

Dispersion correction           -0.082758919
FINAL SINGLE POINT ENERGY     -1333.305591110490

DIPOLE MOMENT
-------------

Method             : SCF
Type of density    : Electron Density
Multiplicity       :   1
Irrep              :   0
Energy             : -1333.2228321918494203 Eh
Relativity type    :
Basis              : AO
                                X                 Y                 Z
Electronic contribution:      0.137262056      -0.355800435       2.287270344
Nuclear contribution   :     -0.138333940       0.363649834      -2.332514991
                        -----------------------------------------
Total Dipole Moment    :     -0.001071884       0.007849399      -0.045244647
                        -----------------------------------------
Magnitude (a.u.)       :      0.045932995
Magnitude (Debye)      :      0.116752396

Rotational constants in cm-1:             0.007373             0.007331             0.004245
Rotational constants in MHz :           221.042361           219.767445           127.259250

                             ****ORCA TERMINATED NORMALLY****
TOTAL RUN TIME: 0 days 0 hours 2 minutes 3 seconds 846 msec
