                         Program Version 6.0.0  -   RELEASE   -
|  1> ! RI BP86 def2-SVP D3BJ TIGHTSCF Opt
|  2> %pal
|  3> nprocs 6
|  4> end
|  5>
|  6> * xyz 0 1
|  7> C     -4.008100    0.530957    1.313228
|  8> C     -4.041488    0.662644   -0.071718
|  9> C     -2.892531    0.410000   -0.826479
| 10> C     -1.691311    0.019301   -0.210324
| 11> C     -1.678680   -0.105301    1.186402
| 12> C     -2.827383    0.147040    1.942320
| 13> P     -0.241265   -0.264413   -1.279591
| 14> C      0.668203   -1.651850   -0.533695
| 15> C      2.070354   -1.721124   -0.597710
| 16> C      2.768283   -2.809085   -0.063144
| 17> C      2.075293   -3.863076    0.523360
| 18> C      0.685201   -3.836332    0.561828
| 19> C     -0.010181   -2.747431    0.026783
| 20> C      0.728436    1.232767   -0.896131
| 21> C      0.822190    2.229330   -1.884601
| 22> C      1.525887    3.412113   -1.665370
| 23> C      2.152915    3.632202   -0.451341
| 24> C      2.076292    2.671235    0.542686
| 25> C      1.372183    1.487152    0.324914
| 26> F      1.333006    0.592728    1.323204
| 27> F      2.683600    2.878244    1.719753
| 28> F      2.832221    4.767794   -0.239775
| 29> F      1.595986    4.336894   -2.633092
| 30> F      0.226954    2.058004   -3.076469
| 31> H     -4.900741    0.726506    1.901616
| 32> H     -4.961127    0.962073   -0.567964
| 33> H     -2.948525    0.522528   -1.908195
| 34> H     -0.775820   -0.406379    1.713057
| 35> H     -2.796238    0.041981    3.023978
| 36> H      2.647649   -0.931905   -1.072793
| 37> H      3.853826   -2.834566   -0.113517
| 38> H      2.616555   -4.709765    0.936973
| 39> H      0.136511   -4.665773    1.000590
| 40> H     -1.098154   -2.774495    0.051217
| 41> **                         ****END OF INPUT****
 Total Charge           Charge          ....    0
 Multiplicity           Mult            ....    1
 Number of Electrons    NEL             ....  178
Dispersion correction           -0.083367609
FINAL SINGLE POINT ENERGY     -1531.592909139874
Dispersion correction             ... done (  0.1 sec)
Dispersion correction           -0.083479403
FINAL SINGLE POINT ENERGY     -1531.598120712053
Dispersion correction             ... done (  0.1 sec)
Dispersion correction           -0.083246586
FINAL SINGLE POINT ENERGY     -1531.598273056279
Dispersion correction             ... done (  0.1 sec)
FINAL SINGLE POINT ENERGY     -1531.598622243258
FINAL SINGLE POINT ENERGY     -1531.599159118741
FINAL SINGLE POINT ENERGY     -1531.599170907246
FINAL SINGLE POINT ENERGY     -1531.599472857878
FINAL SINGLE POINT ENERGY     -1531.599570543206
FINAL SINGLE POINT ENERGY     -1531.599719130699
FINAL SINGLE POINT ENERGY     -1531.599822883330
FINAL SINGLE POINT ENERGY     -1531.599920052319
FINAL SINGLE POINT ENERGY     -1531.599956581557
Dispersion correction             ... done (  0.1 sec)
Dispersion correction           -0.083568879
FINAL SINGLE POINT ENERGY     -1531.599970026805
Dispersion correction             ... done (  0.1 sec)
Dispersion correction           -0.083556687
FINAL SINGLE POINT ENERGY     -1531.599973974298
Dispersion correction             ... done (  0.1 sec)
                    ***********************HURRAY********************

CARTESIAN COORDINATES (ANGSTROEM)
---------------------------------
  C     -3.939870    0.539814    1.563708
  C     -3.896769    1.063275    0.260439
  C     -2.807169    0.773829   -0.575328
  C     -1.736492   -0.020643   -0.109256
  C     -1.786333   -0.541907    1.199670
  C     -2.885947   -0.266163    2.027144
  P     -0.368355   -0.320758   -1.327557
  C      0.643461   -1.631442   -0.516682
  C      2.022627   -1.496869   -0.256311
  C      2.758641   -2.574751    0.261631
  C      2.128766   -3.800974    0.528353
  C      0.756640   -3.948569    0.260464
  C      0.021985   -2.877574   -0.268616
  C      0.661395    1.196993   -1.021791
  C      1.025542    1.990838   -2.127431
  C      1.756060    3.183773   -1.979329
  C      2.138024    3.601675   -0.693317
  C      1.795612    2.828015    0.431173
  C      1.066618    1.640991    0.254034
  F      0.779323    0.926498    1.349309
  F      2.172067    3.227945    1.651093
  F      2.829475    4.732118   -0.537003
  F      2.086932    3.920557   -3.045409
  F      0.679362    1.629257   -3.370027
  H     -4.798195    0.756514    2.217992
  H     -4.721933    1.689459   -0.112343
  H     -2.784112    1.166387   -1.605234
  H     -0.957553   -1.158716    1.575422
  H     -2.914445   -0.677642    3.048013
  H      2.530624   -0.542307   -0.460154
  H      3.833871   -2.451012    0.463206
  H      2.706274   -4.642508    0.940121
  H      0.254282   -4.907752    0.459436
  H     -1.050410   -3.008354   -0.485421

 Multiplicity           Mult            ....    1
 Number of Electrons    NEL             ....  178
 Basis Dimension        Dim             ....  390

ORBITAL ENERGIES
----------------

  NO   OCC          E(Eh)            E(eV)
   0   2.0000     -76.366369     -2078.0345
   1   2.0000     -24.334782      -662.1831
   2   2.0000     -24.329301      -662.0339
   3   2.0000     -24.329189      -662.0309
   4   2.0000     -24.327875      -661.9951
   5   2.0000     -24.325388      -661.9275
   6   2.0000     -10.034822      -273.0614
   7   2.0000     -10.030873      -272.9539
   8   2.0000     -10.030790      -272.9517
   9   2.0000     -10.027601      -272.8649
  10   2.0000     -10.027530      -272.8630
  11   2.0000      -9.957535      -270.9583
  12   2.0000      -9.936499      -270.3859
  13   2.0000      -9.934646      -270.3355
  14   2.0000      -9.931246      -270.2430
  15   2.0000      -9.930476      -270.2220
  16   2.0000      -9.930177      -270.2139
  17   2.0000      -9.929087      -270.1842
  18   2.0000      -9.928625      -270.1716
  19   2.0000      -9.928422      -270.1661
  20   2.0000      -9.928037      -270.1556
  21   2.0000      -9.927726      -270.1472
  22   2.0000      -9.927571      -270.1429
  23   2.0000      -9.927256      -270.1344
  24   2.0000      -6.333837      -172.3525
  25   2.0000      -4.555792      -123.9694
  26   2.0000      -4.554911      -123.9454
  27   2.0000      -4.551562      -123.8543
  28   2.0000      -1.153279       -31.3823
  29   2.0000      -1.144712       -31.1492
  30   2.0000      -1.139801       -31.0156
  31   2.0000      -1.130634       -30.7661
  32   2.0000      -1.128040       -30.6955
  33   2.0000      -0.818759       -22.2796
  34   2.0000      -0.782953       -21.3052
  35   2.0000      -0.776933       -21.1414
  36   2.0000      -0.721595       -19.6356
  37   2.0000      -0.703924       -19.1547
  38   2.0000      -0.691365       -18.8130
  39   2.0000      -0.677630       -18.4392
  40   2.0000      -0.677210       -18.4278
  41   2.0000      -0.672912       -18.3109
  42   2.0000      -0.619085       -16.8462
  43   2.0000      -0.600199       -16.3322
  44   2.0000      -0.581125       -15.8132
  45   2.0000      -0.552582       -15.0365
  46   2.0000      -0.548623       -14.9288
  47   2.0000      -0.542855       -14.7718
  48   2.0000      -0.541274       -14.7288
  49   2.0000      -0.536049       -14.5866
  50   2.0000      -0.526280       -14.3208
  51   2.0000      -0.508539       -13.8380
  52   2.0000      -0.499046       -13.5797
  53   2.0000      -0.491216       -13.3667
  54   2.0000      -0.475998       -12.9526
  55   2.0000      -0.471521       -12.8307
  56   2.0000      -0.468956       -12.7609
  57   2.0000      -0.456499       -12.4220
  58   2.0000      -0.442677       -12.0459
  59   2.0000      -0.433081       -11.7847
  60   2.0000      -0.418026       -11.3751
  61   2.0000      -0.413866       -11.2619
  62   2.0000      -0.412174       -11.2158
  63   2.0000      -0.408862       -11.1257
  64   2.0000      -0.406665       -11.0659
  65   2.0000      -0.404035       -10.9943
  66   2.0000      -0.386706       -10.5228
  67   2.0000      -0.384255       -10.4561
  68   2.0000      -0.383635       -10.4392
  69   2.0000      -0.381260       -10.3746
  70   2.0000      -0.377919       -10.2837
  71   2.0000      -0.372640       -10.1401
  72   2.0000      -0.361937        -9.8488
  73   2.0000      -0.350811        -9.5460
  74   2.0000      -0.340471        -9.2647
  75   2.0000      -0.337243        -9.1768
  76   2.0000      -0.334066        -9.0904
  77   2.0000      -0.318654        -8.6710
  78   2.0000      -0.316559        -8.6140
  79   2.0000      -0.311637        -8.4801
  80   2.0000      -0.309503        -8.4220
  81   2.0000      -0.296454        -8.0669
  82   2.0000      -0.260851        -7.0981
  83   2.0000      -0.250311        -6.8113
  84   2.0000      -0.241915        -6.5828
  85   2.0000      -0.237575        -6.4648
  86   2.0000      -0.237131        -6.4527
  87   2.0000      -0.231684        -6.3044
  88   2.0000      -0.205180        -5.5832
  89   0.0000      -0.080364        -2.1868
  90   0.0000      -0.065964        -1.7950
  91   0.0000      -0.057266        -1.5583
  92   0.0000      -0.056071        -1.5258
  93   0.0000      -0.054545        -1.4842

MULLIKEN ATOMIC CHARGES
-----------------------
   0 C :    0.006750
   1 C :   -0.002149
   2 C :    0.016461
   3 C :   -0.139554
   4 C :    0.005650
   5 C :   -0.000198
   6 P :    0.352036
   7 C :   -0.129807
   8 C :    0.001202
   9 C :    0.002597
  10 C :    0.003093
  11 C :    0.001050
  12 C :   -0.017324
  13 C :   -0.290557
  14 C :    0.156803
  15 C :    0.167523
  16 C :    0.087427
  17 C :    0.177876
  18 C :    0.166123
  19 F :   -0.128946
  20 F :   -0.131802
  21 F :   -0.128202
  22 F :   -0.131484
  23 F :   -0.128898
  24 H :    0.007793
  25 H :    0.007694
  26 H :    0.005712
  27 H :    0.021717
  28 H :    0.005928
  29 H :    0.005657
  30 H :    0.005823
  31 H :    0.007177
  32 H :    0.007717
  33 H :    0.009111
Sum of atomic charges:   -0.0000000

LOEWDIN ATOMIC CHARGES
----------------------
   0 C :   -0.025516
   1 C :   -0.030261
   2 C :   -0.034336
   3 C :   -0.176471
   4 C :   -0.030364
   5 C :   -0.028999
   6 P :    0.529219
   7 C :   -0.175139
   8 C :   -0.039211
   9 C :   -0.026484
  10 C :   -0.029985
  11 C :   -0.027969
  12 C :   -0.037411
  13 C :   -0.239030
  14 C :    0.036554
  15 C :    0.005817
  16 C :    0.025109
  17 C :    0.007065
  18 C :    0.040735
  19 F :   -0.008765
  20 F :   -0.019638
  21 F :   -0.011318
  22 F :   -0.019144
  23 F :   -0.020114
  24 H :    0.034265
  25 H :    0.034869
  26 H :    0.030861
  27 H :    0.034548
  28 H :    0.034647
  29 H :    0.029409
  30 H :    0.034809
  31 H :    0.034229
  32 H :    0.035192
  33 H :    0.032828

  Mayer bond orders larger than 0.100000
B(  0-C ,  1-C ) :   1.3807 B(  0-C ,  5-C ) :   1.3756 B(  0-C , 24-H ) :   0.9759
B(  1-C ,  2-C ) :   1.4015 B(  1-C , 25-H ) :   0.9758 B(  2-C ,  3-C ) :   1.3584
B(  2-C , 26-H ) :   0.9703 B(  3-C ,  4-C ) :   1.3871 B(  3-C ,  6-P ) :   0.9367
B(  4-C ,  5-C ) :   1.3942 B(  4-C , 27-H ) :   0.9617 B(  5-C , 28-H ) :   0.9738
B(  6-P ,  7-C ) :   0.9229 B(  6-P , 13-C ) :   0.9252 B(  7-C ,  8-C ) :   1.3902
B(  7-C , 12-C ) :   1.3525 B(  8-C ,  9-C ) :   1.3933 B(  8-C , 29-H ) :   0.9625
B(  9-C , 10-C ) :   1.3840 B(  9-C , 30-H ) :   0.9730 B( 10-C , 11-C ) :   1.3731
B( 10-C , 31-H ) :   0.9761 B( 11-C , 12-C ) :   1.4145 B( 11-C , 32-H ) :   0.9754
B( 12-C , 33-H ) :   0.9709 B( 13-C , 14-C ) :   1.3247 B( 13-C , 18-C ) :   1.2918
B( 14-C , 15-C ) :   1.2479 B( 14-C , 23-F ) :   1.1803 B( 15-C , 16-C ) :   1.2470
B( 15-C , 22-F ) :   1.1833 B( 16-C , 17-C ) :   1.2369 B( 16-C , 21-F ) :   1.1722
B( 17-C , 18-C ) :   1.2724 B( 17-C , 20-F ) :   1.1847 B( 18-C , 19-F ) :   1.1412

Dispersion correction           -0.083557239
FINAL SINGLE POINT ENERGY     -1531.599974931966

DIPOLE MOMENT
-------------

Method             : SCF
Type of density    : Electron Density
Multiplicity       :   1
Irrep              :   0
Energy             : -1531.5164176928064990 Eh
Relativity type    :
Basis              : AO
                                X                 Y                 Z
Electronic contribution:     16.262019421      28.245518283     -11.286486726
Nuclear contribution   :    -16.532067434     -28.710085160      11.820791155
                        -----------------------------------------
Total Dipole Moment    :     -0.270048013      -0.464566877       0.534304429
                        -----------------------------------------
Magnitude (a.u.)       :      0.757779345
Magnitude (Debye)      :      1.926122023

Rotational constants in cm-1:             0.009177             0.005809             0.004800
Rotational constants in MHz :           275.116451           174.152765           143.889194

                             ****ORCA TERMINATED NORMALLY****
TOTAL RUN TIME: 0 days 0 hours 4 minutes 45 seconds 475 msec
