                         Program Version 6.0.0  -   RELEASE   -
|  1> ! RI BP86 def2-SVP D3BJ TIGHTSCF Opt
|  2> %pal
|  3> nprocs 6
|  4> end
|  5>
|  6> * xyz 0 1
|  7> C     -0.698366   -2.421055   -1.635688
|  8> C     -1.190981   -3.686835   -1.301863
|  9> C     -1.868795   -3.868670   -0.101375
| 10> C     -2.056891   -2.796557    0.765082
| 11> C     -1.562564   -1.530736    0.428945
| 12> C     -0.872772   -1.320769   -0.775245
| 13> P     -0.194841    0.286292   -1.302955
| 14> C      1.555433    0.216422   -0.800587
| 15> C      2.423215    1.202669   -1.306233
| 16> C      3.780320    1.215771   -0.967999
| 17> C      4.289289    0.238459   -0.119777
| 18> C      3.452953   -0.749039    0.391047
| 19> C      2.094951   -0.759803    0.051398
| 20> Cl     5.956737    0.251256    0.300201
| 21> C     -0.940584    1.483326   -0.148966
| 22> C     -2.231063    1.962272   -0.443382
| 23> C     -2.870003    2.883537    0.392880
| 24> C     -2.223880    3.341317    1.535960
| 25> C     -0.946901    2.885540    1.847643
| 26> C     -0.309643    1.963166    1.009326
| 27> Cl    -3.005903    4.472782    2.568021
| 28> Cl    -2.474944   -5.423284    0.314181
| 29> H     -0.171022   -2.303898   -2.581626
| 30> H     -1.041600   -4.520023   -1.983350
| 31> H     -2.586858   -2.933935    1.704111
| 32> H     -1.726683   -0.720448    1.134815
| 33> H      2.048395    1.978710   -1.972481
| 34> H      4.428567    1.989251   -1.371047
| 35> H      3.846682   -1.515420    1.053730
| 36> H      1.474457   -1.545596    0.474800
| 37> H     -2.757680    1.618812   -1.332948
| 38> H     -3.867098    3.236400    0.143419
| 39> H     -0.437766    3.241324    2.739669
| 40> H      0.685839    1.628762    1.290296
| 41> **                         ****END OF INPUT****
 Total Charge           Charge          ....    0
 Multiplicity           Mult            ....    1
 Number of Electrons    NEL             ....  186
Dispersion correction           -0.092620332
FINAL SINGLE POINT ENERGY     -2414.321979285125
Dispersion correction             ... done (  0.1 sec)
Dispersion correction           -0.093123644
FINAL SINGLE POINT ENERGY     -2414.327402773756
Dispersion correction             ... done (  0.1 sec)
Dispersion correction           -0.093336905
FINAL SINGLE POINT ENERGY     -2414.328188523019
Dispersion correction             ... done (  0.1 sec)
FINAL SINGLE POINT ENERGY     -2414.328401241040
FINAL SINGLE POINT ENERGY     -2414.328446878051
Dispersion correction             ... done (  0.1 sec)
Dispersion correction           -0.093372169
FINAL SINGLE POINT ENERGY     -2414.328452354528
Dispersion correction             ... done (  0.1 sec)
Dispersion correction           -0.093364645
FINAL SINGLE POINT ENERGY     -2414.328454350622
Dispersion correction             ... done (  0.1 sec)
                    ***********************HURRAY********************

CARTESIAN COORDINATES (ANGSTROEM)
---------------------------------
  C     -0.708427   -2.422979   -1.678435
  C     -1.158405   -3.689185   -1.281089
  C     -1.809053   -3.826616   -0.041976
  C     -2.006652   -2.715957    0.795445
  C     -1.538109   -1.457014    0.389978
  C     -0.880328   -1.293776   -0.847129
  P     -0.217885    0.321184   -1.463328
  C      1.533118    0.228156   -0.869932
  C      2.428563    1.213549   -1.342188
  C      3.766672    1.234392   -0.926745
  C      4.223776    0.242564   -0.040802
  C      3.356977   -0.757870    0.430088
  C      2.016217   -0.757277    0.016038
  Cl     5.894668    0.251709    0.476090
  C     -0.942297    1.489303   -0.223252
  C     -2.248400    1.967488   -0.471086
  C     -2.881759    2.839651    0.424253
  C     -2.191775    3.257866    1.576098
  C     -0.886177    2.809238    1.836686
  C     -0.270552    1.924570    0.938058
  Cl    -2.967647    4.356225    2.694560
  Cl    -2.385240   -5.400168    0.459268
  H     -0.209403   -2.310510   -2.654574
  H     -1.018816   -4.568166   -1.926047
  H     -2.519985   -2.842943    1.759145
  H     -1.684691   -0.589776    1.050955
  H      2.070977    1.982569   -2.045911
  H      4.460747    2.005264   -1.290192
  H      3.733315   -1.526426    1.120080
  H      1.336679   -1.535772    0.393928
  H     -2.782064    1.648388   -1.380964
  H     -3.900161    3.206294    0.233210
  H     -0.362076    3.149569    2.741043
  H      0.748191    1.566456    1.148728

 Multiplicity           Mult            ....    1
 Number of Electrons    NEL             ....  186
 Basis Dimension        Dim             ....  384

ORBITAL ENERGIES
----------------

  NO   OCC          E(Eh)            E(eV)
   0   2.0000    -100.707668     -2740.3950
   1   2.0000    -100.707641     -2740.3942
   2   2.0000    -100.707562     -2740.3921
   3   2.0000     -76.360125     -2077.8646
   4   2.0000      -9.983365      -271.6612
   5   2.0000      -9.983339      -271.6605
   6   2.0000      -9.983224      -271.6573
   7   2.0000      -9.940928      -270.5064
   8   2.0000      -9.940907      -270.5058
   9   2.0000      -9.940841      -270.5040
  10   2.0000      -9.940135      -270.4848
  11   2.0000      -9.940108      -270.4841
  12   2.0000      -9.940045      -270.4824
  13   2.0000      -9.939837      -270.4767
  14   2.0000      -9.939808      -270.4759
  15   2.0000      -9.939750      -270.4743
  16   2.0000      -9.939715      -270.4734
  17   2.0000      -9.939691      -270.4727
  18   2.0000      -9.939610      -270.4705
  19   2.0000      -9.939121      -270.4572
  20   2.0000      -9.939095      -270.4565
  21   2.0000      -9.938976      -270.4533
  22   2.0000      -9.192804      -250.1489
  23   2.0000      -9.192776      -250.1482
  24   2.0000      -9.192696      -250.1460
  25   2.0000      -7.023728      -191.1254
  26   2.0000      -7.023700      -191.1246
  27   2.0000      -7.023618      -191.1224
  28   2.0000      -7.012570      -190.8217
  29   2.0000      -7.012542      -190.8210
  30   2.0000      -7.012462      -190.8188
  31   2.0000      -7.011885      -190.8031
  32   2.0000      -7.011860      -190.8024
  33   2.0000      -7.011780      -190.8002
  34   2.0000      -6.328293      -172.2016
  35   2.0000      -4.549734      -123.8045
  36   2.0000      -4.549729      -123.8044
  37   2.0000      -4.546138      -123.7067
  38   2.0000      -0.819169       -22.2907
  39   2.0000      -0.817778       -22.2529
  40   2.0000      -0.817704       -22.2508
  41   2.0000      -0.775502       -21.1025
  42   2.0000      -0.765257       -20.8237
  43   2.0000      -0.765183       -20.8217
  44   2.0000      -0.696413       -18.9504
  45   2.0000      -0.690034       -18.7768
  46   2.0000      -0.690015       -18.7763
  47   2.0000      -0.689766       -18.7695
  48   2.0000      -0.664440       -18.0803
  49   2.0000      -0.664366       -18.0783
  50   2.0000      -0.587801       -15.9949
  51   2.0000      -0.565727       -15.3942
  52   2.0000      -0.565631       -15.3916
  53   2.0000      -0.565600       -15.3908
  54   2.0000      -0.542714       -14.7680
  55   2.0000      -0.542664       -14.7666
  56   2.0000      -0.517278       -14.0759
  57   2.0000      -0.474677       -12.9166
  58   2.0000      -0.474613       -12.9149
  59   2.0000      -0.450270       -12.2525
  60   2.0000      -0.435115       -11.8401
  61   2.0000      -0.434760       -11.8304
  62   2.0000      -0.434746       -11.8301
  63   2.0000      -0.418342       -11.3837
  64   2.0000      -0.418318       -11.3830
  65   2.0000      -0.410183       -11.1616
  66   2.0000      -0.395399       -10.7593
  67   2.0000      -0.394874       -10.7451
  68   2.0000      -0.394840       -10.7442
  69   2.0000      -0.388810       -10.5801
  70   2.0000      -0.388742       -10.5782
  71   2.0000      -0.365825        -9.9546
  72   2.0000      -0.363949        -9.9036
  73   2.0000      -0.363892        -9.9020
  74   2.0000      -0.357765        -9.7353
  75   2.0000      -0.330013        -8.9801
  76   2.0000      -0.329980        -8.9792
  77   2.0000      -0.328116        -8.9285
  78   2.0000      -0.314060        -8.5460
  79   2.0000      -0.313969        -8.5435
  80   2.0000      -0.307287        -8.3617
  81   2.0000      -0.300225        -8.1695
  82   2.0000      -0.300108        -8.1663
  83   2.0000      -0.277164        -7.5420
  84   2.0000      -0.277135        -7.5412
  85   2.0000      -0.277061        -7.5392
  86   2.0000      -0.254989        -6.9386
  87   2.0000      -0.249534        -6.7902
  88   2.0000      -0.249438        -6.7876
  89   2.0000      -0.249325        -6.7845
  90   2.0000      -0.232320        -6.3217
  91   2.0000      -0.232190        -6.3182
  92   2.0000      -0.203632        -5.5411
  93   0.0000      -0.072804        -1.9811
  94   0.0000      -0.072687        -1.9779
  95   0.0000      -0.072362        -1.9691
  96   0.0000      -0.058295        -1.5863
  97   0.0000      -0.057039        -1.5521

MULLIKEN ATOMIC CHARGES
-----------------------
   0 C :    0.000332
   1 C :    0.029303
   2 C :    0.019946
   3 C :    0.035460
   4 C :   -0.010020
   5 C :   -0.147284
   6 P :    0.313682
   7 C :   -0.147602
   8 C :    0.000095
   9 C :    0.029411
  10 C :    0.019924
  11 C :    0.035474
  12 C :   -0.009978
  13 Cl:   -0.081237
  14 C :   -0.147405
  15 C :    0.000006
  16 C :    0.029381
  17 C :    0.019891
  18 C :    0.035424
  19 C :   -0.010059
  20 Cl:   -0.081391
  21 Cl:   -0.081291
  22 H :    0.013344
  23 H :    0.007194
  24 H :    0.005311
  25 H :    0.023567
  26 H :    0.013393
  27 H :    0.007173
  28 H :    0.005345
  29 H :    0.023322
  30 H :    0.013261
  31 H :    0.007161
  32 H :    0.005227
  33 H :    0.023640
Sum of atomic charges:   -0.0000000

LOEWDIN ATOMIC CHARGES
----------------------
   0 C :   -0.026147
   1 C :   -0.045320
   2 C :   -0.118381
   3 C :   -0.045477
   4 C :   -0.028699
   5 C :   -0.179440
   6 P :    0.504842
   7 C :   -0.179418
   8 C :   -0.026250
   9 C :   -0.045348
  10 C :   -0.118440
  11 C :   -0.045447
  12 C :   -0.028572
  13 Cl:    0.121066
  14 C :   -0.179343
  15 C :   -0.026246
  16 C :   -0.045305
  17 C :   -0.118506
  18 C :   -0.045447
  19 C :   -0.028840
  20 Cl:    0.120923
  21 Cl:    0.121009
  22 H :    0.035971
  23 H :    0.039864
  24 H :    0.039549
  25 H :    0.038897
  26 H :    0.035969
  27 H :    0.039870
  28 H :    0.039554
  29 H :    0.038887
  30 H :    0.035952
  31 H :    0.039857
  32 H :    0.039524
  33 H :    0.038893

  Mayer bond orders larger than 0.100000
B(  0-C ,  1-C ) :   1.3930 B(  0-C ,  5-C ) :   1.3500 B(  0-C , 22-H ) :   0.9683
B(  1-C ,  2-C ) :   1.3733 B(  1-C , 23-H ) :   0.9772 B(  2-C ,  3-C ) :   1.3758
B(  2-C , 21-Cl) :   0.9873 B(  3-C ,  4-C ) :   1.3697 B(  3-C , 24-H ) :   0.9770
B(  4-C ,  5-C ) :   1.3699 B(  4-C , 25-H ) :   0.9636 B(  5-C ,  6-P ) :   0.9358
B(  6-P ,  7-C ) :   0.9356 B(  6-P , 14-C ) :   0.9351 B(  7-C ,  8-C ) :   1.3500
B(  7-C , 12-C ) :   1.3698 B(  8-C ,  9-C ) :   1.3930 B(  8-C , 26-H ) :   0.9682
B(  9-C , 10-C ) :   1.3732 B(  9-C , 27-H ) :   0.9772 B( 10-C , 11-C ) :   1.3758
B( 10-C , 13-Cl) :   0.9874 B( 11-C , 12-C ) :   1.3699 B( 11-C , 28-H ) :   0.9769
B( 12-C , 29-H ) :   0.9637 B( 14-C , 15-C ) :   1.3496 B( 14-C , 19-C ) :   1.3708
B( 15-C , 16-C ) :   1.3936 B( 15-C , 30-H ) :   0.9683 B( 16-C , 17-C ) :   1.3729
B( 16-C , 31-H ) :   0.9772 B( 17-C , 18-C ) :   1.3763 B( 17-C , 20-Cl) :   0.9872
B( 18-C , 19-C ) :   1.3693 B( 18-C , 32-H ) :   0.9769 B( 19-C , 33-H ) :   0.9635

Dispersion correction           -0.093366181
FINAL SINGLE POINT ENERGY     -2414.328454749917

DIPOLE MOMENT
-------------

Method             : SCF
Type of density    : Electron Density
Multiplicity       :   1
Irrep              :   0
Energy             : -2414.2350885689002098 Eh
Relativity type    :
Basis              : AO
                                X                 Y                 Z
Electronic contribution:      0.808737006      -1.178386518       5.396860077
Nuclear contribution   :     -0.824731804       1.201509707      -5.518903439
                        -----------------------------------------
Total Dipole Moment    :     -0.015994798       0.023123190      -0.122043362
                        -----------------------------------------
Magnitude (a.u.)       :      0.125240160
Magnitude (Debye)      :      0.318335188

Rotational constants in cm-1:             0.005077             0.005065             0.002877
Rotational constants in MHz :           152.193146           151.857001            86.241645

                             ****ORCA TERMINATED NORMALLY****
TOTAL RUN TIME: 0 days 0 hours 2 minutes 14 seconds 171 msec
