                         Program Version 6.0.0  -   RELEASE   -
|  1> ! RI BP86 def2-SVP D3BJ TIGHTSCF Opt
|  2> %pal
|  3> nprocs 6
|  4> end
|  5>
|  6> * xyz 0 1
|  7> C      2.300487    1.432693    0.477796
|  8> C      1.637389    0.133425    0.006170
|  9> C      2.586026   -1.028947    0.320931
| 10> P     -0.011473   -0.092669    0.816367
| 11> C     -1.155147    1.124467    0.017418
| 12> C     -1.336109    2.342477    0.931641
| 13> C     -0.784790    1.588438   -1.388113
| 14> C     -0.606500   -1.743417    0.228537
| 15> C     -0.759655   -1.892707   -1.279570
| 16> C     -1.914122   -2.127719    0.929578
| 17> H      1.705784    2.315667    0.229021
| 18> H      3.278000    1.561243   -0.000862
| 19> H      2.459769    1.435679    1.562662
| 20> H      1.520318    0.177844   -1.080957
| 21> H      2.232118   -1.969734   -0.112252
| 22> H      3.579459   -0.842294   -0.102850
| 23> H      2.706691   -1.178201    1.400149
| 24> H     -2.138052    0.644345   -0.047706
| 25> H     -1.692456    2.046990    1.925401
| 26> H     -2.077501    3.031769    0.511906
| 27> H     -0.403466    2.900756    1.064723
| 28> H      0.119682    2.204034   -1.396690
| 29> H     -1.590610    2.202590   -1.806783
| 30> H     -0.625533    0.756146   -2.077730
| 31> H      0.140041   -2.475144    0.558375
| 32> H      0.155581   -1.623924   -1.815527
| 33> H     -0.988736   -2.933640   -1.535690
| 34> H     -1.579604   -1.281218   -1.669626
| 35> H     -1.812091   -2.085445    2.020112
| 36> H     -2.743497   -1.471199    0.645517
| 37> H     -2.202001   -3.152308    0.668050
| 38> **                         ****END OF INPUT****
 Total Charge           Charge          ....    0
 Multiplicity           Mult            ....    1
 Number of Electrons    NEL             ....   90
Dispersion correction           -0.054929170
FINAL SINGLE POINT ENERGY      -696.660721472867
Dispersion correction             ... done (  0.1 sec)
Dispersion correction           -0.054925482
FINAL SINGLE POINT ENERGY      -696.666832815517
Dispersion correction             ... done (  0.1 sec)
Dispersion correction           -0.054543395
FINAL SINGLE POINT ENERGY      -696.667687814154
Dispersion correction             ... done (  0.1 sec)
FINAL SINGLE POINT ENERGY      -696.667249705891
FINAL SINGLE POINT ENERGY      -696.668231457362
FINAL SINGLE POINT ENERGY      -696.668261899323
FINAL SINGLE POINT ENERGY      -696.668272469008
FINAL SINGLE POINT ENERGY      -696.668280501808
Dispersion correction             ... done (  0.1 sec)
Dispersion correction           -0.054566654
FINAL SINGLE POINT ENERGY      -696.668280410650
Dispersion correction             ... done (  0.1 sec)
Dispersion correction           -0.054568756
FINAL SINGLE POINT ENERGY      -696.668283316685
Dispersion correction             ... done (  0.1 sec)
                    ***********************HURRAY********************

CARTESIAN COORDINATES (ANGSTROEM)
---------------------------------
  C      2.297389    1.444889    0.449902
  C      1.653784    0.123867   -0.002092
  C      2.582685   -1.063996    0.290602
  P      0.010760   -0.093544    0.910085
  C     -1.149063    1.147146    0.039825
  C     -1.373996    2.360381    0.958912
  C     -0.778125    1.589035   -1.382732
  C     -0.610798   -1.754917    0.235554
  C     -0.702068   -1.910926   -1.286648
  C     -1.939349   -2.106969    0.923515
  H      1.661844    2.323732    0.221048
  H      3.274553    1.600300   -0.055717
  H      2.477611    1.442197    1.545401
  H      1.470736    0.170513   -1.097794
  H      2.208139   -2.011295   -0.145795
  H      3.592494   -0.880638   -0.134530
  H      2.703954   -1.218530    1.384242
  H     -2.109699    0.586339   -0.013718
  H     -1.698480    2.049481    1.971983
  H     -2.146572    3.039968    0.538658
  H     -0.442829    2.953212    1.079845
  H      0.152443    2.192642   -1.395590
  H     -1.582034    2.228599   -1.807208
  H     -0.633239    0.735923   -2.071858
  H      0.156663   -2.465380    0.616751
  H      0.247026   -1.649696   -1.796740
  H     -0.947935   -2.960192   -1.559415
  H     -1.503115   -1.270904   -1.710454
  H     -1.858494   -2.035980    2.027103
  H     -2.756576   -1.426087    0.602212
  H     -2.257706   -3.139174    0.664651

 Multiplicity           Mult            ....    1
 Number of Electrons    NEL             ....   90
 Basis Dimension        Dim             ....  249

ORBITAL ENERGIES
----------------

  NO   OCC          E(Eh)            E(eV)
   0   2.0000     -76.320994     -2076.7998
   1   2.0000      -9.920563      -269.9522
   2   2.0000      -9.920482      -269.9500
   3   2.0000      -9.919231      -269.9160
   4   2.0000      -9.910451      -269.6771
   5   2.0000      -9.909726      -269.6574
   6   2.0000      -9.909195      -269.6429
   7   2.0000      -9.908744      -269.6306
   8   2.0000      -9.908633      -269.6276
   9   2.0000      -9.905534      -269.5433
  10   2.0000      -6.290363      -171.1695
  11   2.0000      -4.511818      -122.7728
  12   2.0000      -4.511696      -122.7695
  13   2.0000      -4.508105      -122.6718
  14   2.0000      -0.727990       -19.8096
  15   2.0000      -0.700663       -19.0660
  16   2.0000      -0.698369       -19.0036
  17   2.0000      -0.613265       -16.6878
  18   2.0000      -0.610193       -16.6042
  19   2.0000      -0.605664       -16.4809
  20   2.0000      -0.570750       -15.5309
  21   2.0000      -0.515596       -14.0301
  22   2.0000      -0.512079       -13.9344
  23   2.0000      -0.453541       -12.3415
  24   2.0000      -0.417670       -11.3654
  25   2.0000      -0.413059       -11.2399
  26   2.0000      -0.401064       -10.9135
  27   2.0000      -0.383616       -10.4387
  28   2.0000      -0.380133       -10.3439
  29   2.0000      -0.364336        -9.9141
  30   2.0000      -0.360714        -9.8155
  31   2.0000      -0.351804        -9.5731
  32   2.0000      -0.345985        -9.4147
  33   2.0000      -0.340079        -9.2540
  34   2.0000      -0.336521        -9.1572
  35   2.0000      -0.333330        -9.0704
  36   2.0000      -0.307833        -8.3765
  37   2.0000      -0.306692        -8.3455
  38   2.0000      -0.304512        -8.2862
  39   2.0000      -0.299356        -8.1459
  40   2.0000      -0.296593        -8.0707
  41   2.0000      -0.291704        -7.9377
  42   2.0000      -0.250497        -6.8164
  43   2.0000      -0.247913        -6.7461
  44   2.0000      -0.184981        -5.0336
  45   0.0000       0.018002         0.4899
  46   0.0000       0.023106         0.6287
  47   0.0000       0.030245         0.8230
  48   0.0000       0.051520         1.4019
  49   0.0000       0.058087         1.5806

MULLIKEN ATOMIC CHARGES
-----------------------
   0 C :   -0.007168
   1 C :   -0.261184
   2 C :   -0.015995
   3 P :    0.168568
   4 C :   -0.271517
   5 C :    0.004252
   6 C :    0.001224
   7 C :   -0.274301
   8 C :   -0.006137
   9 C :   -0.008226
  10 H :    0.032139
  11 H :    0.027419
  12 H :    0.033686
  13 H :    0.037654
  14 H :    0.035911
  15 H :    0.027330
  16 H :    0.035444
  17 H :    0.043120
  18 H :    0.034254
  19 H :    0.024279
  20 H :    0.024419
  21 H :    0.025680
  22 H :    0.026048
  23 H :    0.024330
  24 H :    0.049185
  25 H :    0.033109
  26 H :    0.025589
  27 H :    0.035973
  28 H :    0.038882
  29 H :    0.027730
  30 H :    0.028302
Sum of atomic charges:   -0.0000000

LOEWDIN ATOMIC CHARGES
----------------------
   0 C :   -0.077067
   1 C :   -0.177927
   2 C :   -0.076460
   3 P :    0.453982
   4 C :   -0.179993
   5 C :   -0.077981
   6 C :   -0.076178
   7 C :   -0.182332
   8 C :   -0.077158
   9 C :   -0.077178
  10 H :    0.022290
  11 H :    0.027750
  12 H :    0.028464
  13 H :    0.017681
  14 H :    0.025258
  15 H :    0.028949
  16 H :    0.027854
  17 H :    0.026019
  18 H :    0.027639
  19 H :    0.024629
  20 H :    0.024036
  21 H :    0.025942
  22 H :    0.028916
  23 H :    0.024818
  24 H :    0.027608
  25 H :    0.025358
  26 H :    0.028412
  27 H :    0.026756
  28 H :    0.029451
  29 H :    0.022413
  30 H :    0.028048

  Mayer bond orders larger than 0.100000
B(  0-C ,  1-C ) :   1.0648 B(  0-C , 10-H ) :   0.9536 B(  0-C , 11-H ) :   0.9552
B(  0-C , 12-H ) :   0.9592 B(  1-C ,  2-C ) :   1.0631 B(  1-C ,  3-P ) :   0.9613
B(  1-C , 13-H ) :   0.8886 B(  2-C , 14-H ) :   0.9564 B(  2-C , 15-H ) :   0.9563
B(  2-C , 16-H ) :   0.9599 B(  3-P ,  4-C ) :   0.9339 B(  3-P ,  7-C ) :   0.9497
B(  4-C ,  5-C ) :   1.0584 B(  4-C ,  6-C ) :   1.0648 B(  4-C , 17-H ) :   0.9066
B(  5-C , 18-H ) :   0.9585 B(  5-C , 19-H ) :   0.9581 B(  5-C , 20-H ) :   0.9634
B(  6-C , 21-H ) :   0.9537 B(  6-C , 22-H ) :   0.9505 B(  6-C , 23-H ) :   0.9520
B(  7-C ,  8-C ) :   1.0480 B(  7-C ,  9-C ) :   1.0655 B(  7-C , 24-H ) :   0.9093
B(  8-C , 25-H ) :   0.9564 B(  8-C , 26-H ) :   0.9502 B(  8-C , 27-H ) :   0.9575
B(  9-C , 28-H ) :   0.9565 B(  9-C , 29-H ) :   0.9596 B(  9-C , 30-H ) :   0.9572

Dispersion correction           -0.054566743
FINAL SINGLE POINT ENERGY      -696.668283449261

DIPOLE MOMENT
-------------

Method             : SCF
Type of density    : Electron Density
Multiplicity       :   1
Irrep              :   0
Energy             :  -696.6137167057956958 Eh
Relativity type    :
Basis              : AO
                                X                 Y                 Z
Electronic contribution:     -0.003674722      -0.979367083       4.904092116
Nuclear contribution   :     -0.013984612       0.882720476      -5.373735931
                        -----------------------------------------
Total Dipole Moment    :     -0.017659334      -0.096646607      -0.469643815
                        -----------------------------------------
Magnitude (a.u.)       :      0.479810100
Magnitude (Debye)      :      1.219580352

Rotational constants in cm-1:             0.036246             0.032954             0.023048
Rotational constants in MHz :          1086.641958           987.928386           690.949439

                             ****ORCA TERMINATED NORMALLY****
TOTAL RUN TIME: 0 days 0 hours 1 minutes 32 seconds 900 msec
