                         Program Version 6.0.0  -   RELEASE   -
|  1> ! RI BP86 def2-SVP D3BJ TIGHTSCF Opt
|  2> %pal
|  3> nprocs 6
|  4> end
|  5>
|  6> * xyz 0 1
|  7> C     -4.280720    6.720738    1.116819
|  8> C     -2.906432    6.084818    1.263689
|  9> C     -2.513326    5.312372    0.004510
| 10> C     -1.084785    4.759986    0.047022
| 11> C     -0.891584    3.657291    1.090812
| 12> C      0.536658    3.101511    1.132973
| 13> C      1.056308    2.470077   -0.166642
| 14> C      0.191914    1.359306   -0.766387
| 15> P      0.072134   -0.166645    0.278460
| 16> C     -1.017039   -1.186707   -0.815149
| 17> C     -1.737443   -2.332248   -0.097109
| 18> C     -2.775567   -1.924327    0.959826
| 19> C     -3.968304   -1.097496    0.463294
| 20> C     -5.204018   -1.918140    0.076158
| 21> C     -5.079372   -2.800451   -1.166779
| 22> C     -4.718451   -2.072547   -2.463440
| 23> C     -5.729260   -1.009102   -2.864720
| 24> C      1.741324   -0.901867   -0.054846
| 25> C      1.938158   -2.265883    0.605312
| 26> C      3.345713   -2.839187    0.396642
| 27> C      4.435374   -2.049071    1.127186
| 28> C      5.799274   -2.749583    1.124927
| 29> C      6.421607   -2.858693   -0.269698
| 30> C      7.787990   -3.550237   -0.270606
| 31> C      8.871450   -2.761842    0.449048
| 32> H     -4.294443    7.438346    0.290095
| 33> H     -4.551663    7.254088    2.033704
| 34> H     -5.045963    5.961058    0.925413
| 35> H     -2.167997    6.868770    1.466675
| 36> H     -2.921446    5.417412    2.131620
| 37> H     -3.220642    4.491287   -0.163256
| 38> H     -2.593875    5.979480   -0.862665
| 39> H     -0.854735    4.365564   -0.949339
| 40> H     -0.379151    5.577966    0.235990
| 41> H     -1.606831    2.846484    0.913353
| 42> H     -1.117782    4.053647    2.087351
| 43> H      0.598312    2.366909    1.945052
| 44> H      1.220743    3.912841    1.413564
| 45> H      1.166982    3.259928   -0.919833
| 46> H      2.072080    2.098349    0.016162
| 47> H      0.603840    1.081880   -1.743829
| 48> H     -0.818045    1.736644   -0.957105
| 49> H     -1.753577   -0.532786   -1.290688
| 50> H     -0.415196   -1.600595   -1.632265
| 51> H     -1.003995   -2.982280    0.393348
| 52> H     -2.221242   -2.955149   -0.855636
| 53> H     -3.141840   -2.831310    1.457070
| 54> H     -2.266220   -1.350033    1.743118
| 55> H     -3.689592   -0.413216   -0.341756
| 56> H     -4.278039   -0.453108    1.297288
| 57> H     -5.484870   -2.555686    0.924280
| 58> H     -6.045118   -1.227442   -0.060987
| 59> H     -6.037162   -3.316759   -1.312902
| 60> H     -4.344723   -3.591654   -0.982692
| 61> H     -4.656368   -2.815075   -3.268247
| 62> H     -3.726079   -1.618396   -2.387283
| 63> H     -6.740546   -1.425310   -2.915162
| 64> H     -5.733401   -0.173191   -2.158272
| 65> H     -5.478855   -0.606768   -3.851972
| 66> H      2.482932   -0.198319    0.334942
| 67> H      1.907952   -0.981887   -1.134956
| 68> H      1.227371   -2.983362    0.180428
| 69> H      1.723230   -2.209522    1.679989
| 70> H      3.560562   -2.880021   -0.677297
| 71> H      3.348926   -3.873638    0.762212
| 72> H      4.130974   -1.900474    2.170755
| 73> H      4.544684   -1.053535    0.682749
| 74> H      6.465953   -2.177907    1.780644
| 75> H      5.700763   -3.748339    1.567144
| 76> H      5.757852   -3.435406   -0.923461
| 77> H      6.515234   -1.860452   -0.713641
| 78> H      7.702314   -4.547088    0.177934
| 79> H      8.100140   -3.696869   -1.311827
| 80> H      9.842342   -3.250404    0.315386
| 81> H      8.677497   -2.702909    1.524245
| 82> H      8.947113   -1.743837    0.052846
| 83> **                         ****END OF INPUT****
 Total Charge           Charge          ....    0
 Multiplicity           Mult            ....    1
 Number of Electrons    NEL             ....  210
Dispersion correction           -0.124593417
FINAL SINGLE POINT ENERGY     -1285.962604420548
Dispersion correction             ... done (  0.1 sec)
Dispersion correction           -0.124346360
FINAL SINGLE POINT ENERGY     -1285.974012798464
Dispersion correction             ... done (  0.1 sec)
Dispersion correction           -0.124542525
FINAL SINGLE POINT ENERGY     -1285.975405304136
Dispersion correction             ... done (  0.1 sec)
FINAL SINGLE POINT ENERGY     -1285.976106324210
FINAL SINGLE POINT ENERGY     -1285.976272483205
FINAL SINGLE POINT ENERGY     -1285.976448666046
FINAL SINGLE POINT ENERGY     -1285.976536666344
FINAL SINGLE POINT ENERGY     -1285.976605185798
FINAL SINGLE POINT ENERGY     -1285.976651180287
FINAL SINGLE POINT ENERGY     -1285.976675344338
FINAL SINGLE POINT ENERGY     -1285.979338232514
FINAL SINGLE POINT ENERGY     -1285.979581647893
FINAL SINGLE POINT ENERGY     -1285.979617541065
FINAL SINGLE POINT ENERGY     -1285.979685760011
FINAL SINGLE POINT ENERGY     -1285.979695404978
FINAL SINGLE POINT ENERGY     -1285.979704612327
FINAL SINGLE POINT ENERGY     -1285.979710331648
Dispersion correction             ... done (  0.1 sec)
Dispersion correction           -0.131538160
FINAL SINGLE POINT ENERGY     -1285.979712374526
Dispersion correction             ... done (  0.1 sec)
Dispersion correction           -0.131526130
FINAL SINGLE POINT ENERGY     -1285.979713788980
Dispersion correction             ... done (  0.1 sec)
                    ***********************HURRAY********************

CARTESIAN COORDINATES (ANGSTROEM)
---------------------------------
  C     -5.152459    4.957467    0.725804
  C     -3.628409    4.813806    0.780848
  C     -3.036574    4.206248   -0.498163
  C     -1.504966    4.090817   -0.519596
  C     -0.932949    3.166297    0.563099
  C      0.576637    2.900111    0.459811
  C      1.037427    2.257384   -0.863342
  C      0.229088    1.020546   -1.286878
  P      0.048894   -0.282838    0.055106
  C     -1.006122   -1.488295   -0.930231
  C     -1.684878   -2.597354   -0.108069
  C     -2.403661   -2.119217    1.166493
  C     -3.455670   -1.007827    1.005580
  C     -4.694817   -1.362645    0.157791
  C     -4.574546   -1.143236   -1.362687
  C     -4.358703    0.316310   -1.800558
  C     -5.501231    1.264676   -1.420926
  C      1.739997   -1.078735   -0.079628
  C      1.943349   -2.259313    0.880088
  C      3.346184   -2.886042    0.816599
  C      4.476814   -1.957707    1.282529
  C      5.867415   -2.611503    1.321258
  C      6.414221   -3.024667   -0.052951
  C      7.814626   -3.659847   -0.019642
  C      8.932356   -2.719060    0.445910
  H     -5.466525    5.607618   -0.118190
  H     -5.559869    5.399212    1.658060
  H     -5.642951    3.972126    0.579848
  H     -3.161821    5.808811    0.961880
  H     -3.349962    4.187463    1.656098
  H     -3.474648    3.194333   -0.652240
  H     -3.369519    4.812318   -1.370502
  H     -1.198783    3.721739   -1.522712
  H     -1.049326    5.103125   -0.422045
  H     -1.472801    2.192125    0.537638
  H     -1.146421    3.588616    1.568102
  H      0.864894    2.233467    1.301563
  H      1.137460    3.849042    0.610584
  H      0.991092    3.005057   -1.685693
  H      2.113047    1.989655   -0.774262
  H      0.663149    0.564433   -2.204249
  H     -0.809758    1.316845   -1.549905
  H     -1.779096   -0.855841   -1.415340
  H     -0.404044   -1.924493   -1.757794
  H     -0.927683   -3.355934    0.186519
  H     -2.397618   -3.140010   -0.768056
  H     -2.883700   -2.999802    1.648861
  H     -1.634932   -1.756316    1.882832
  H     -2.970074   -0.086132    0.613487
  H     -3.795157   -0.731659    2.026595
  H     -4.970147   -2.424181    0.347623
  H     -5.560909   -0.770835    0.525465
  H     -5.504139   -1.519611   -1.845761
  H     -3.754344   -1.768894   -1.773231
  H     -4.216726    0.334591   -2.903022
  H     -3.404185    0.703654   -1.376619
  H     -6.476002    0.891060   -1.800599
  H     -5.596279    1.379467   -0.321589
  H     -5.344719    2.277886   -1.842231
  H      2.472839   -0.273637    0.144843
  H      1.925843   -1.392770   -1.132845
  H      1.191380   -3.046698    0.656995
  H      1.729989   -1.924860    1.920251
  H      3.539546   -3.227533   -0.224667
  H      3.358230   -3.805985    1.443330
  H      4.226251   -1.576446    2.297756
  H      4.521808   -1.059185    0.626940
  H      6.576454   -1.903988    1.802587
  H      5.836329   -3.506459    1.984950
  H      5.711359   -3.741996   -0.529083
  H      6.431140   -2.131557   -0.720098
  H      7.789764   -4.560169    0.635391
  H      8.058203   -4.037370   -1.036767
  H      9.923635   -3.214559    0.400055
  H      8.784159   -2.380540    1.492004
  H      8.983547   -1.810557   -0.191412

 Multiplicity           Mult            ....    1
 Number of Electrons    NEL             ....  210
 Basis Dimension        Dim             ....  609

ORBITAL ENERGIES
----------------

  NO   OCC          E(Eh)            E(eV)
   0   2.0000     -76.324769     -2076.9026
   1   2.0000      -9.912563      -269.7346
   2   2.0000      -9.912364      -269.7291
   3   2.0000      -9.912112      -269.7223
   4   2.0000      -9.911346      -269.7014
   5   2.0000      -9.910951      -269.6907
   6   2.0000      -9.910707      -269.6840
   7   2.0000      -9.910631      -269.6820
   8   2.0000      -9.909895      -269.6620
   9   2.0000      -9.908629      -269.6275
  10   2.0000      -9.907991      -269.6101
  11   2.0000      -9.907445      -269.5953
  12   2.0000      -9.907120      -269.5864
  13   2.0000      -9.907041      -269.5843
  14   2.0000      -9.905934      -269.5542
  15   2.0000      -9.905546      -269.5436
  16   2.0000      -9.904803      -269.5234
  17   2.0000      -9.904679      -269.5200
  18   2.0000      -9.904606      -269.5180
  19   2.0000      -9.904572      -269.5171
  20   2.0000      -9.904470      -269.5143
  21   2.0000      -9.903521      -269.4885
  22   2.0000      -9.903433      -269.4861
  23   2.0000      -9.902570      -269.4626
  24   2.0000      -9.901711      -269.4392
  25   2.0000      -6.293729      -171.2611
  26   2.0000      -4.515227      -122.8656
  27   2.0000      -4.515132      -122.8630
  28   2.0000      -4.511476      -122.7635
  29   2.0000      -0.733896       -19.9703
  30   2.0000      -0.729894       -19.8614
  31   2.0000      -0.728390       -19.8205
  32   2.0000      -0.713231       -19.4080
  33   2.0000      -0.705030       -19.1849
  34   2.0000      -0.702621       -19.1193
  35   2.0000      -0.678424       -18.4609
  36   2.0000      -0.665440       -18.1076
  37   2.0000      -0.662885       -18.0380
  38   2.0000      -0.636720       -17.3260
  39   2.0000      -0.621823       -16.9207
  40   2.0000      -0.618909       -16.8414
  41   2.0000      -0.594979       -16.1902
  42   2.0000      -0.580892       -15.8069
  43   2.0000      -0.573393       -15.6028
  44   2.0000      -0.554400       -15.0860
  45   2.0000      -0.542328       -14.7575
  46   2.0000      -0.538916       -14.6646
  47   2.0000      -0.516484       -14.0542
  48   2.0000      -0.508831       -13.8460
  49   2.0000      -0.502960       -13.6862
  50   2.0000      -0.491562       -13.3761
  51   2.0000      -0.485434       -13.2093
  52   2.0000      -0.474225       -12.9043
  53   2.0000      -0.459469       -12.5028
  54   2.0000      -0.427746       -11.6396
  55   2.0000      -0.423342       -11.5197
  56   2.0000      -0.417665       -11.3652
  57   2.0000      -0.413817       -11.2605
  58   2.0000      -0.412924       -11.2362
  59   2.0000      -0.408290       -11.1101
  60   2.0000      -0.405098       -11.0233
  61   2.0000      -0.401602       -10.9281
  62   2.0000      -0.395850       -10.7716
  63   2.0000      -0.388885       -10.5821
  64   2.0000      -0.383415       -10.4333
  65   2.0000      -0.376530       -10.2459
  66   2.0000      -0.375403       -10.2152
  67   2.0000      -0.369514       -10.0550
  68   2.0000      -0.365867        -9.9557
  69   2.0000      -0.361642        -9.8408
  70   2.0000      -0.360595        -9.8123
  71   2.0000      -0.359285        -9.7766
  72   2.0000      -0.351327        -9.5601
  73   2.0000      -0.348115        -9.4727
  74   2.0000      -0.345203        -9.3935
  75   2.0000      -0.338238        -9.2039
  76   2.0000      -0.335189        -9.1210
  77   2.0000      -0.330366        -8.9897
  78   2.0000      -0.327464        -8.9107
  79   2.0000      -0.321606        -8.7514
  80   2.0000      -0.319729        -8.7003
  81   2.0000      -0.317330        -8.6350
  82   2.0000      -0.315286        -8.5794
  83   2.0000      -0.306102        -8.3294
  84   2.0000      -0.303200        -8.2505
  85   2.0000      -0.301827        -8.2131
  86   2.0000      -0.299257        -8.1432
  87   2.0000      -0.295276        -8.0349
  88   2.0000      -0.291358        -7.9283
  89   2.0000      -0.289023        -7.8647
  90   2.0000      -0.285580        -7.7710
  91   2.0000      -0.284513        -7.7420
  92   2.0000      -0.281381        -7.6568
  93   2.0000      -0.280243        -7.6258
  94   2.0000      -0.276808        -7.5323
  95   2.0000      -0.274796        -7.4776
  96   2.0000      -0.271975        -7.4008
  97   2.0000      -0.268570        -7.3082
  98   2.0000      -0.268202        -7.2981
  99   2.0000      -0.265579        -7.2268
 100   2.0000      -0.264371        -7.1939
 101   2.0000      -0.263371        -7.1667
 102   2.0000      -0.254274        -6.9192
 103   2.0000      -0.252704        -6.8764
 104   2.0000      -0.187045        -5.0898
 105   0.0000       0.007462         0.2030
 106   0.0000       0.016500         0.4490
 107   0.0000       0.019894         0.5414
 108   0.0000       0.036185         0.9846
 109   0.0000       0.038228         1.0402

MULLIKEN ATOMIC CHARGES
-----------------------
   0 C :   -0.046583
   1 C :   -0.072677
   2 C :   -0.038456
   3 C :   -0.010369
   4 C :   -0.055798
   5 C :   -0.004512
   6 C :   -0.011867
   7 C :   -0.166450
   8 P :    0.089584
   9 C :   -0.163956
  10 C :    0.009473
  11 C :   -0.026120
  12 C :   -0.031894
  13 C :   -0.018373
  14 C :   -0.025224
  15 C :   -0.087266
  16 C :   -0.059831
  17 C :   -0.177170
  18 C :    0.021605
  19 C :   -0.032085
  20 C :   -0.026281
  21 C :   -0.014894
  22 C :   -0.049678
  23 C :   -0.034414
  24 C :   -0.068163
  25 H :    0.023809
  26 H :    0.027449
  27 H :    0.026286
  28 H :    0.015512
  29 H :    0.027446
  30 H :    0.014999
  31 H :    0.009186
  32 H :    0.011892
  33 H :    0.006458
  34 H :    0.020596
  35 H :    0.019665
  36 H :    0.028057
  37 H :    0.010609
  38 H :    0.023766
  39 H :    0.019315
  40 H :    0.033917
  41 H :    0.051383
  42 H :    0.045748
  43 H :    0.031091
  44 H :    0.016392
  45 H :    0.019640
  46 H :    0.009791
  47 H :    0.028769
  48 H :    0.020536
  49 H :    0.012185
  50 H :    0.008396
  51 H :    0.011442
  52 H :    0.010072
  53 H :    0.013779
  54 H :    0.018407
  55 H :    0.035447
  56 H :    0.022645
  57 H :    0.043288
  58 H :    0.038665
  59 H :    0.053009
  60 H :    0.028377
  61 H :    0.017895
  62 H :    0.019216
  63 H :    0.017193
  64 H :    0.011137
  65 H :    0.010709
  66 H :    0.015507
  67 H :    0.013925
  68 H :    0.007185
  69 H :    0.019566
  70 H :    0.009082
  71 H :    0.015483
  72 H :    0.017499
  73 H :    0.029392
  74 H :    0.033818
  75 H :    0.025771
Sum of atomic charges:   -0.0000000

LOEWDIN ATOMIC CHARGES
----------------------
   0 C :   -0.075081
   1 C :   -0.052253
   2 C :   -0.048222
   3 C :   -0.047220
   4 C :   -0.051251
   5 C :   -0.049840
   6 C :   -0.057083
   7 C :   -0.182731
   8 P :    0.449075
   9 C :   -0.184984
  10 C :   -0.056984
  11 C :   -0.050140
  12 C :   -0.050725
  13 C :   -0.048167
  14 C :   -0.049201
  15 C :   -0.054826
  16 C :   -0.077765
  17 C :   -0.184808
  18 C :   -0.055312
  19 C :   -0.047163
  20 C :   -0.047155
  21 C :   -0.046422
  22 C :   -0.049244
  23 C :   -0.051170
  24 C :   -0.077218
  25 H :    0.025541
  26 H :    0.028169
  27 H :    0.026751
  28 H :    0.023620
  29 H :    0.024728
  30 H :    0.025606
  31 H :    0.023608
  32 H :    0.022813
  33 H :    0.022440
  34 H :    0.018389
  35 H :    0.027051
  36 H :    0.024363
  37 H :    0.025297
  38 H :    0.025800
  39 H :    0.024905
  40 H :    0.022290
  41 H :    0.023902
  42 H :    0.025338
  43 H :    0.023357
  44 H :    0.023582
  45 H :    0.023455
  46 H :    0.024278
  47 H :    0.022758
  48 H :    0.018597
  49 H :    0.031063
  50 H :    0.025202
  51 H :    0.024814
  52 H :    0.026015
  53 H :    0.022553
  54 H :    0.028249
  55 H :    0.016336
  56 H :    0.027682
  57 H :    0.025321
  58 H :    0.028854
  59 H :    0.024445
  60 H :    0.017959
  61 H :    0.024464
  62 H :    0.025134
  63 H :    0.021950
  64 H :    0.025872
  65 H :    0.026010
  66 H :    0.021814
  67 H :    0.024587
  68 H :    0.022587
  69 H :    0.024101
  70 H :    0.022259
  71 H :    0.024565
  72 H :    0.026569
  73 H :    0.029368
  74 H :    0.025004
  75 H :    0.026471

  Mayer bond orders larger than 0.100000
B(  0-C ,  1-C ) :   1.1132 B(  0-C , 25-H ) :   0.9647 B(  0-C , 26-H ) :   0.9612
B(  0-C , 27-H ) :   0.9643 B(  1-C ,  2-C ) :   1.0891 B(  1-C , 28-H ) :   0.9402
B(  1-C , 29-H ) :   0.9355 B(  2-C ,  3-C ) :   1.0979 B(  2-C , 30-H ) :   0.9236
B(  2-C , 31-H ) :   0.9318 B(  3-C ,  4-C ) :   1.0856 B(  3-C , 32-H ) :   0.9200
B(  3-C , 33-H ) :   0.9275 B(  4-C ,  5-C ) :   1.0990 B(  4-C , 34-H ) :   0.9219
B(  4-C , 35-H ) :   0.9223 B(  5-C ,  6-C ) :   1.0906 B(  5-C , 36-H ) :   0.9186
B(  5-C , 37-H ) :   0.9277 B(  6-C ,  7-C ) :   1.0799 B(  6-C , 38-H ) :   0.9241
B(  6-C , 39-H ) :   0.9288 B(  7-C ,  8-P ) :   0.9844 B(  7-C , 40-H ) :   0.9178
B(  7-C , 41-H ) :   0.9225 B(  8-P ,  9-C ) :   0.9855 B(  8-P , 17-C ) :   0.9741
B(  9-C , 10-C ) :   1.0776 B(  9-C , 42-H ) :   0.9195 B(  9-C , 43-H ) :   0.9150
B( 10-C , 11-C ) :   1.0996 B( 10-C , 44-H ) :   0.9215 B( 10-C , 45-H ) :   0.9197
B( 11-C , 12-C ) :   1.1053 B( 11-C , 46-H ) :   0.9262 B( 11-C , 47-H ) :   0.9175
B( 12-C , 13-C ) :   1.0769 B( 12-C , 48-H ) :   0.9276 B( 12-C , 49-H ) :   0.9228
B( 13-C , 14-C ) :   1.0911 B( 13-C , 50-H ) :   0.9291 B( 13-C , 51-H ) :   0.9309
B( 14-C , 15-C ) :   1.0946 B( 14-C , 52-H ) :   0.9246 B( 14-C , 53-H ) :   0.9262
B( 15-C , 16-C ) :   1.1163 B( 15-C , 54-H ) :   0.9335 B( 15-C , 55-H ) :   0.9216
B( 16-C , 56-H ) :   0.9576 B( 16-C , 57-H ) :   0.9574 B( 16-C , 58-H ) :   0.9524
B( 17-C , 18-C ) :   1.0677 B( 17-C , 59-H ) :   0.9270 B( 17-C , 60-H ) :   0.9196
B( 18-C , 19-C ) :   1.0971 B( 18-C , 61-H ) :   0.9261 B( 18-C , 62-H ) :   0.9268
B( 19-C , 20-C ) :   1.0908 B( 19-C , 63-H ) :   0.9274 B( 19-C , 64-H ) :   0.9300
B( 20-C , 21-C ) :   1.0966 B( 20-C , 65-H ) :   0.9301 B( 20-C , 66-H ) :   0.9252
B( 21-C , 22-C ) :   1.0854 B( 21-C , 67-H ) :   0.9279 B( 21-C , 68-H ) :   0.9305
B( 22-C , 23-C ) :   1.0945 B( 22-C , 69-H ) :   0.9300 B( 22-C , 70-H ) :   0.9348
B( 23-C , 24-C ) :   1.1112 B( 23-C , 71-H ) :   0.9368 B( 23-C , 72-H ) :   0.9374
B( 24-C , 73-H ) :   0.9616 B( 24-C , 74-H ) :   0.9652 B( 24-C , 75-H ) :   0.9667

Dispersion correction           -0.131535309
FINAL SINGLE POINT ENERGY     -1285.979713913833

DIPOLE MOMENT
-------------

Method             : SCF
Type of density    : Electron Density
Multiplicity       :   1
Irrep              :   0
Energy             : -1285.8481786049196671 Eh
Relativity type    :
Basis              : AO
                                X                 Y                 Z
Electronic contribution:      1.470746252      -3.895650104       1.309873105
Nuclear contribution   :     -1.308558491       3.741387787      -1.621883220
                        -----------------------------------------
Total Dipole Moment    :      0.162187761      -0.154262317      -0.312010115
                        -----------------------------------------
Magnitude (a.u.)       :      0.383994849
Magnitude (Debye)      :      0.976037339

Rotational constants in cm-1:             0.009176             0.002237             0.001921
Rotational constants in MHz :           275.087475            67.070014            57.591940

                             ****ORCA TERMINATED NORMALLY****
TOTAL RUN TIME: 0 days 0 hours 21 minutes 31 seconds 439 msec
