                         Program Version 6.0.0  -   RELEASE   -
|  1> ! RI BP86 def2-SVP D3BJ TIGHTSCF Opt
|  2> %pal
|  3> nprocs 6
|  4> end
|  5>
|  6> * xyz 0 1
|  7> C     -2.947186   -3.284497   -0.470887
|  8> C     -1.843364   -3.595354    0.318513
|  9> C     -1.004822   -2.577670    0.774980
| 10> C     -1.248894   -1.235294    0.435539
| 11> C     -2.381148   -0.937319   -0.335586
| 12> C     -3.219602   -1.956843   -0.792413
| 13> P     -0.134156    0.036831    1.063082
| 14> O     -0.274572    0.106508    2.572979
| 15> C     -0.502912    1.622351    0.284575
| 16> C     -0.863413    2.714034    1.088719
| 17> C     -1.139249    3.957702    0.519885
| 18> C     -1.056811    4.125923   -0.860354
| 19> C     -0.699299    3.051857   -1.672540
| 20> C     -0.422040    1.807093   -1.104623
| 21> C      1.539115   -0.345608    0.575536
| 22> C      2.609156    0.012798    1.399182
| 23> C      3.925482   -0.272810    1.041715
| 24> C      4.195811   -0.913770   -0.156332
| 25> C      3.151098   -1.257581   -0.998664
| 26> C      1.837024   -0.969739   -0.635799
| 27> F      0.853183   -1.278945   -1.489265
| 28> F      3.402346   -1.858029   -2.169940
| 29> F      5.460258   -1.187026   -0.505388
| 30> F      4.931097    0.081545    1.853345
| 31> F      2.384766    0.664413    2.546481
| 32> H     -3.604270   -4.075428   -0.823417
| 33> H     -1.641674   -4.629203    0.587433
| 34> H     -0.161860   -2.833048    1.413855
| 35> H     -2.636520    0.090421   -0.580121
| 36> H     -4.093152   -1.712925   -1.392259
| 37> H     -0.927378    2.593613    2.169924
| 38> H     -1.417427    4.794886    1.155564
| 39> H     -1.272663    5.095274   -1.302837
| 40> H     -0.639309    3.184569   -2.750235
| 41> H     -0.157613    0.981271   -1.760646
| 42> **                         ****END OF INPUT****
 Total Charge           Charge          ....    0
 Multiplicity           Mult            ....    1
 Number of Electrons    NEL             ....  186
Dispersion correction           -0.087715417
FINAL SINGLE POINT ENERGY     -1606.783511671478
Dispersion correction             ... done (  0.1 sec)
Dispersion correction           -0.087509895
FINAL SINGLE POINT ENERGY     -1606.791091034631
Dispersion correction             ... done (  0.1 sec)
Dispersion correction           -0.087363635
FINAL SINGLE POINT ENERGY     -1606.792766181457
Dispersion correction             ... done (  0.1 sec)
FINAL SINGLE POINT ENERGY     -1606.792615159578
FINAL SINGLE POINT ENERGY     -1606.793180358006
FINAL SINGLE POINT ENERGY     -1606.793214340320
FINAL SINGLE POINT ENERGY     -1606.793241609990
FINAL SINGLE POINT ENERGY     -1606.793250979147
FINAL SINGLE POINT ENERGY     -1606.793257392887
FINAL SINGLE POINT ENERGY     -1606.793261120582
Dispersion correction             ... done (  0.1 sec)
Dispersion correction           -0.087363582
FINAL SINGLE POINT ENERGY     -1606.793263643446
Dispersion correction             ... done (  0.1 sec)
Dispersion correction           -0.087364262
FINAL SINGLE POINT ENERGY     -1606.793264834425
Dispersion correction             ... done (  0.1 sec)
                    ***********************HURRAY********************

CARTESIAN COORDINATES (ANGSTROEM)
---------------------------------
  C     -2.883881   -3.269218   -0.451394
  C     -1.733508   -3.566111    0.301391
  C     -0.900710   -2.530513    0.746621
  C     -1.210360   -1.190722    0.431250
  C     -2.368692   -0.894303   -0.312290
  C     -3.201930   -1.935035   -0.753432
  P     -0.169378    0.123241    1.153189
  O     -0.297740    0.250580    2.655256
  C     -0.547736    1.676589    0.268052
  C     -0.957402    2.757383    1.073105
  C     -1.263050    3.992073    0.478227
  C     -1.159120    4.146523   -0.914270
  C     -0.747221    3.066888   -1.716815
  C     -0.438697    1.830598   -1.129936
  C      1.553430   -0.326279    0.605391
  C      2.646975   -0.097863    1.467322
  C      3.957792   -0.460911    1.102459
  C      4.197283   -1.047402   -0.151315
  C      3.128031   -1.271490   -1.036843
  C      1.831138   -0.900701   -0.650208
  F      0.846678   -1.111330   -1.545100
  F      3.355844   -1.821594   -2.234243
  F      5.437172   -1.388589   -0.504234
  F      4.978076   -0.239454    1.936613
  F      2.490177    0.478495    2.658380
  H     -3.536923   -4.083311   -0.801267
  H     -1.486775   -4.611028    0.543772
  H     -0.004910   -2.760494    1.345024
  H     -2.617965    0.150843   -0.549648
  H     -4.105398   -1.701380   -1.337075
  H     -1.024672    2.604919    2.161617
  H     -1.582629    4.838197    1.105594
  H     -1.398760    5.115076   -1.379504
  H     -0.665286    3.190214   -2.807579
  H     -0.119851    0.986109   -1.758110

 Multiplicity           Mult            ....    1
 Number of Electrons    NEL             ....  186
 Basis Dimension        Dim             ....  404

ORBITAL ENERGIES
----------------

  NO   OCC          E(Eh)            E(eV)
   0   2.0000     -76.436133     -2079.9329
   1   2.0000     -24.338171      -662.2753
   2   2.0000     -24.336689      -662.2350
   3   2.0000     -24.333852      -662.1578
   4   2.0000     -24.331026      -662.0809
   5   2.0000     -24.323317      -661.8711
   6   2.0000     -18.728975      -509.6413
   7   2.0000     -10.038456      -273.1603
   8   2.0000     -10.037087      -273.1230
   9   2.0000     -10.035451      -273.0785
  10   2.0000     -10.032068      -272.9864
  11   2.0000     -10.030157      -272.9345
  12   2.0000      -9.959423      -271.0097
  13   2.0000      -9.940588      -270.4971
  14   2.0000      -9.938909      -270.4515
  15   2.0000      -9.938236      -270.4332
  16   2.0000      -9.938005      -270.4269
  17   2.0000      -9.937938      -270.4250
  18   2.0000      -9.937381      -270.4099
  19   2.0000      -9.936991      -270.3993
  20   2.0000      -9.936347      -270.3817
  21   2.0000      -9.935750      -270.3655
  22   2.0000      -9.935247      -270.3518
  23   2.0000      -9.935071      -270.3470
  24   2.0000      -9.935016      -270.3455
  25   2.0000      -6.393058      -173.9639
  26   2.0000      -4.614999      -125.5805
  27   2.0000      -4.614022      -125.5539
  28   2.0000      -4.613786      -125.5475
  29   2.0000      -1.157079       -31.4857
  30   2.0000      -1.149211       -31.2716
  31   2.0000      -1.143127       -31.1061
  32   2.0000      -1.135143       -30.8888
  33   2.0000      -1.129936       -30.7471
  34   2.0000      -0.865285       -23.5456
  35   2.0000      -0.822052       -22.3692
  36   2.0000      -0.788398       -21.4534
  37   2.0000      -0.785516       -21.3750
  38   2.0000      -0.722314       -19.6552
  39   2.0000      -0.707513       -19.2524
  40   2.0000      -0.696790       -18.9606
  41   2.0000      -0.685784       -18.6611
  42   2.0000      -0.684926       -18.6378
  43   2.0000      -0.682067       -18.5600
  44   2.0000      -0.620915       -16.8960
  45   2.0000      -0.604090       -16.4381
  46   2.0000      -0.584082       -15.8937
  47   2.0000      -0.559116       -15.2143
  48   2.0000      -0.558145       -15.1879
  49   2.0000      -0.549790       -14.9605
  50   2.0000      -0.546722       -14.8771
  51   2.0000      -0.540160       -14.6985
  52   2.0000      -0.530049       -14.4234
  53   2.0000      -0.511793       -13.9266
  54   2.0000      -0.502351       -13.6697
  55   2.0000      -0.495274       -13.4771
  56   2.0000      -0.483643       -13.1606
  57   2.0000      -0.474918       -12.9232
  58   2.0000      -0.474327       -12.9071
  59   2.0000      -0.463679       -12.6173
  60   2.0000      -0.447107       -12.1664
  61   2.0000      -0.436818       -11.8864
  62   2.0000      -0.426379       -11.6024
  63   2.0000      -0.421968       -11.4823
  64   2.0000      -0.418360       -11.3841
  65   2.0000      -0.416334       -11.3290
  66   2.0000      -0.410913       -11.1815
  67   2.0000      -0.409726       -11.1492
  68   2.0000      -0.396959       -10.8018
  69   2.0000      -0.391741       -10.6598
  70   2.0000      -0.389773       -10.6063
  71   2.0000      -0.387217       -10.5367
  72   2.0000      -0.385740       -10.4965
  73   2.0000      -0.383963       -10.4482
  74   2.0000      -0.366003        -9.9594
  75   2.0000      -0.358453        -9.7540
  76   2.0000      -0.350225        -9.5301
  77   2.0000      -0.345872        -9.4116
  78   2.0000      -0.337550        -9.1852
  79   2.0000      -0.333574        -9.0770
  80   2.0000      -0.325371        -8.8538
  81   2.0000      -0.320585        -8.7235
  82   2.0000      -0.320165        -8.7121
  83   2.0000      -0.311721        -8.4824
  84   2.0000      -0.308431        -8.3928
  85   2.0000      -0.258858        -7.0439
  86   2.0000      -0.250838        -6.8256
  87   2.0000      -0.248497        -6.7619
  88   2.0000      -0.246600        -6.7103
  89   2.0000      -0.243671        -6.6306
  90   2.0000      -0.235406        -6.4057
  91   2.0000      -0.233699        -6.3593
  92   2.0000      -0.225471        -6.1354
  93   0.0000      -0.086416        -2.3515
  94   0.0000      -0.073349        -1.9959
  95   0.0000      -0.070203        -1.9103
  96   0.0000      -0.062381        -1.6975
  97   0.0000      -0.060955        -1.6587

MULLIKEN ATOMIC CHARGES
-----------------------
   0 C :    0.011989
   1 C :   -0.001574
   2 C :    0.015504
   3 C :   -0.111062
   4 C :   -0.004757
   5 C :    0.001429
   6 P :    0.638694
   7 O :   -0.416076
   8 C :   -0.138149
   9 C :    0.006876
  10 C :    0.001232
  11 C :    0.011271
  12 C :    0.001162
  13 C :   -0.015898
  14 C :   -0.237595
  15 C :    0.149506
  16 C :    0.161902
  17 C :    0.091745
  18 C :    0.179919
  19 C :    0.139615
  20 F :   -0.138241
  21 F :   -0.130469
  22 F :   -0.125621
  23 F :   -0.128622
  24 F :   -0.110689
  25 H :    0.012366
  26 H :    0.012120
  27 H :    0.013053
  28 H :    0.019315
  29 H :    0.009793
  30 H :    0.029426
  31 H :    0.014925
  32 H :    0.013253
  33 H :    0.010266
  34 H :    0.013390
Sum of atomic charges:   -0.0000000

LOEWDIN ATOMIC CHARGES
----------------------
   0 C :   -0.017349
   1 C :   -0.023872
   2 C :   -0.020330
   3 C :   -0.186247
   4 C :   -0.023963
   5 C :   -0.024737
   6 P :    0.889318
   7 O :   -0.464784
   8 C :   -0.192127
   9 C :   -0.013820
  10 C :   -0.025146
  11 C :   -0.017020
  12 C :   -0.027861
  13 C :   -0.031400
  14 C :   -0.246740
  15 C :    0.047794
  16 C :    0.008917
  17 C :    0.026565
  18 C :    0.007907
  19 C :    0.035808
  20 F :   -0.018168
  21 F :   -0.018454
  22 F :   -0.009227
  23 F :   -0.015896
  24 F :   -0.001898
  25 H :    0.036484
  26 H :    0.037098
  27 H :    0.035206
  28 H :    0.036514
  29 H :    0.036519
  30 H :    0.041365
  31 H :    0.037652
  32 H :    0.036478
  33 H :    0.036279
  34 H :    0.029133

  Mayer bond orders larger than 0.100000
B(  0-C ,  1-C ) :   1.3735 B(  0-C ,  5-C ) :   1.3863 B(  0-C , 25-H ) :   0.9757
B(  1-C ,  2-C ) :   1.4083 B(  1-C , 26-H ) :   0.9758 B(  2-C ,  3-C ) :   1.3608
B(  2-C , 27-H ) :   0.9731 B(  3-C ,  4-C ) :   1.3974 B(  3-C ,  6-P ) :   0.8745
B(  4-C ,  5-C ) :   1.3851 B(  4-C , 28-H ) :   0.9671 B(  5-C , 29-H ) :   0.9741
B(  6-P ,  7-O ) :   1.9662 B(  6-P ,  8-C ) :   0.8811 B(  6-P , 14-C ) :   0.7871
B(  8-C ,  9-C ) :   1.3881 B(  8-C , 13-C ) :   1.3378 B(  9-C , 10-C ) :   1.3616
B(  9-C , 30-H ) :   0.9714 B( 10-C , 11-C ) :   1.3852 B( 10-C , 31-H ) :   0.9787
B( 11-C , 12-C ) :   1.3715 B( 11-C , 32-H ) :   0.9761 B( 12-C , 13-C ) :   1.3996
B( 12-C , 33-H ) :   0.9763 B( 13-C , 34-H ) :   0.9675 B( 14-C , 15-C ) :   1.3082
B( 14-C , 19-C ) :   1.3273 B( 15-C , 16-C ) :   1.2585 B( 15-C , 24-F ) :   1.1958
B( 16-C , 17-C ) :   1.2498 B( 16-C , 23-F ) :   1.1824 B( 17-C , 18-C ) :   1.2406
B( 17-C , 22-F ) :   1.1776 B( 18-C , 19-C ) :   1.2788 B( 18-C , 21-F ) :   1.1866
B( 19-C , 20-F ) :   1.1077

Dispersion correction           -0.087365588
FINAL SINGLE POINT ENERGY     -1606.793265240636

DIPOLE MOMENT
-------------

Method             : SCF
Type of density    : Electron Density
Multiplicity       :   1
Irrep              :   0
Energy             : -1606.7058996529381147 Eh
Relativity type    :
Basis              : AO
                                X                 Y                 Z
Electronic contribution:     33.719612129      -7.797348484       3.950244021
Nuclear contribution   :    -34.347844092       7.870736506      -5.307974654
                        -----------------------------------------
Total Dipole Moment    :     -0.628231964       0.073388022      -1.357730633
                        -----------------------------------------
Magnitude (a.u.)       :      1.497829654
Magnitude (Debye)      :      3.807180419

Rotational constants in cm-1:             0.008432             0.005657             0.004576
Rotational constants in MHz :           252.780623           169.597513           137.193786

                             ****ORCA TERMINATED NORMALLY****
TOTAL RUN TIME: 0 days 0 hours 4 minutes 5 seconds 574 msec
