                         Program Version 6.0.0  -   RELEASE   -
|  1> ! RIJONX B3LYP def2-SVP D3BJ TIGHTSCF Opt
|  2> %pal
|  3> nprocs 6
|  4> end
|  5>
|  6> * xyz 0 1
|  7> C     -0.819809    4.828366    2.039791
|  8> C     -0.064777    3.508943    2.067416
|  9> C     -0.366296    2.664094    0.828128
| 10> C      0.397212    1.339551    0.866723
| 11> P      0.107513    0.315772   -0.651226
| 12> C      1.128925   -1.173937   -0.234451
| 13> C      2.625863   -0.922065   -0.420424
| 14> C      3.437185   -2.184134   -0.121331
| 15> C      4.927682   -1.944589   -0.302309
| 16> C     -1.585643   -0.340399   -0.278557
| 17> C     -2.100441   -1.274663   -1.374451
| 18> C     -3.519239   -1.756069   -1.064969
| 19> C     -4.040812   -2.686798   -2.148213
| 20> H     -0.541355    5.421406    1.162817
| 21> H     -0.589394    5.415670    2.934153
| 22> H     -1.901285    4.661043    2.012565
| 23> H     -0.342059    2.955004    2.971853
| 24> H      1.010824    3.711901    2.127475
| 25> H     -0.093184    3.229828   -0.071961
| 26> H     -1.446196    2.482016    0.772495
| 27> H      0.117873    0.768407    1.759188
| 28> H      1.469317    1.551663    0.940045
| 29> H      0.824477   -1.995546   -0.891754
| 30> H      0.923921   -1.489092    0.794811
| 31> H      2.827736   -0.596149   -1.448934
| 32> H      2.963110   -0.114248    0.239975
| 33> H      3.248251   -2.512883    0.907244
| 34> H      3.120815   -2.996749   -0.785622
| 35> H      5.154818   -1.644564   -1.330275
| 36> H      5.487803   -2.859124   -0.083704
| 37> H      5.283502   -1.158957    0.371859
| 38> H     -1.579375   -0.858261    0.687107
| 39> H     -2.271814    0.508430   -0.186716
| 40> H     -1.440994   -2.144782   -1.476696
| 41> H     -2.095792   -0.757579   -2.342649
| 42> H     -4.193291   -0.896241   -0.975160
| 43> H     -3.532379   -2.281310   -0.102842
| 44> H     -3.406807   -3.574287   -2.241638
| 45> H     -4.070294   -2.181461   -3.118823
| 46> H     -5.055595   -3.018209   -1.906796
| 47> **                         ****END OF INPUT****
 Total Charge           Charge          ....    0
 Multiplicity           Mult            ....    1
 Number of Electrons    NEL             ....  114
Dispersion correction           -0.064792462
FINAL SINGLE POINT ENERGY      -814.127044742051
Dispersion correction             ... done (  0.1 sec)
Dispersion correction           -0.064139189
FINAL SINGLE POINT ENERGY      -814.130344459186
Dispersion correction             ... done (  0.1 sec)
Dispersion correction           -0.064014949
FINAL SINGLE POINT ENERGY      -814.130709445372
Dispersion correction             ... done (  0.1 sec)
FINAL SINGLE POINT ENERGY      -814.130799631321
FINAL SINGLE POINT ENERGY      -814.130814536206
Dispersion correction             ... done (  0.1 sec)
Dispersion correction           -0.063997318
FINAL SINGLE POINT ENERGY      -814.130817168461
Dispersion correction             ... done (  0.1 sec)
Dispersion correction           -0.063998410
FINAL SINGLE POINT ENERGY      -814.130818119164
Dispersion correction             ... done (  0.1 sec)
                    ***********************HURRAY********************

CARTESIAN COORDINATES (ANGSTROEM)
---------------------------------
  C     -0.829186    4.877897    2.089086
  C     -0.073413    3.549770    2.086826
  C     -0.360485    2.693219    0.850409
  C      0.389530    1.359032    0.849104
  P      0.113041    0.340593   -0.695715
  C      1.141815   -1.157609   -0.249647
  C      2.647284   -0.945897   -0.427111
  C      3.476283   -2.195773   -0.117777
  C      4.979052   -1.981844   -0.294508
  C     -1.585789   -0.339383   -0.305365
  C     -2.129499   -1.286779   -1.377598
  C     -3.549843   -1.780537   -1.088420
  C     -4.086883   -2.731345   -2.157460
  H     -0.565779    5.488115    1.208710
  H     -0.603103    5.473620    2.988033
  H     -1.920146    4.716179    2.061619
  H     -0.330102    2.973069    2.994178
  H      1.013785    3.739251    2.149375
  H     -0.097088    3.261773   -0.059812
  H     -1.449057    2.512843    0.785979
  H      0.122029    0.762654    1.741227
  H      1.475048    1.549202    0.912642
  H      0.807923   -1.979063   -0.906950
  H      0.913805   -1.470937    0.786212
  H      2.850327   -0.616435   -1.462099
  H      2.990417   -0.120198    0.222605
  H      3.265274   -2.522925    0.916717
  H      3.138073   -3.022611   -0.768731
  H      5.220141   -1.684476   -1.328989
  H      5.549963   -2.896590   -0.067907
  H      5.349231   -1.183759    0.371143
  H     -1.570130   -0.838525    0.681472
  H     -2.260546    0.528736   -0.207776
  H     -1.461288   -2.161157   -1.480058
  H     -2.109792   -0.778351   -2.358531
  H     -4.222137   -0.908351   -0.992913
  H     -3.565795   -2.280684   -0.102850
  H     -3.450953   -3.628145   -2.248979
  H     -4.112656   -2.244839   -3.147120
  H     -5.109354   -3.069744   -1.924879

 Multiplicity           Mult            ....    1
 Number of Electrons    NEL             ....  114
 Basis Dimension        Dim             ....  321

ORBITAL ENERGIES
----------------

  NO   OCC          E(Eh)            E(eV)
   0   2.0000     -77.028614     -2096.0551
   1   2.0000     -10.179211      -276.9904
   2   2.0000     -10.179186      -276.9897
   3   2.0000     -10.179175      -276.9894
   4   2.0000     -10.178250      -276.9643
   5   2.0000     -10.178228      -276.9637
   6   2.0000     -10.178227      -276.9636
   7   2.0000     -10.177385      -276.9407
   8   2.0000     -10.177368      -276.9403
   9   2.0000     -10.177312      -276.9387
  10   2.0000     -10.174073      -276.8506
  11   2.0000     -10.174071      -276.8505
  12   2.0000     -10.174047      -276.8499
  13   2.0000      -6.526203      -177.5870
  14   2.0000      -4.691540      -127.6633
  15   2.0000      -4.691536      -127.6632
  16   2.0000      -4.688560      -127.5822
  17   2.0000      -0.795428       -21.6447
  18   2.0000      -0.783519       -21.3206
  19   2.0000      -0.783486       -21.3197
  20   2.0000      -0.739845       -20.1322
  21   2.0000      -0.709880       -19.3168
  22   2.0000      -0.709827       -19.3154
  23   2.0000      -0.648574       -17.6486
  24   2.0000      -0.613262       -16.6877
  25   2.0000      -0.613202       -16.6861
  26   2.0000      -0.570450       -15.5227
  27   2.0000      -0.568436       -15.4679
  28   2.0000      -0.568366       -15.4660
  29   2.0000      -0.515558       -14.0291
  30   2.0000      -0.467605       -12.7242
  31   2.0000      -0.467548       -12.7226
  32   2.0000      -0.467098       -12.7104
  33   2.0000      -0.429664       -11.6917
  34   2.0000      -0.429582       -11.6895
  35   2.0000      -0.428116       -11.6496
  36   2.0000      -0.413142       -11.2422
  37   2.0000      -0.413034       -11.2392
  38   2.0000      -0.410169       -11.1613
  39   2.0000      -0.394698       -10.7403
  40   2.0000      -0.394663       -10.7393
  41   2.0000      -0.382275       -10.4022
  42   2.0000      -0.363034        -9.8787
  43   2.0000      -0.362989        -9.8774
  44   2.0000      -0.359118        -9.7721
  45   2.0000      -0.346736        -9.4352
  46   2.0000      -0.346706        -9.4344
  47   2.0000      -0.339768        -9.2456
  48   2.0000      -0.333746        -9.0817
  49   2.0000      -0.331587        -9.0229
  50   2.0000      -0.331565        -9.0223
  51   2.0000      -0.323325        -8.7981
  52   2.0000      -0.318509        -8.6671
  53   2.0000      -0.318478        -8.6662
  54   2.0000      -0.289498        -7.8776
  55   2.0000      -0.289433        -7.8759
  56   2.0000      -0.217331        -5.9139
  57   0.0000       0.052660         1.4330
  58   0.0000       0.052720         1.4346
  59   0.0000       0.056719         1.5434
  60   0.0000       0.070421         1.9163
  61   0.0000       0.070449         1.9170

MULLIKEN ATOMIC CHARGES
-----------------------
   0 C :    0.020435
   1 C :   -0.015511
   2 C :    0.026997
   3 C :   -0.133035
   4 P :    0.172788
   5 C :   -0.134146
   6 C :    0.027374
   7 C :   -0.015617
   8 C :    0.020648
   9 C :   -0.133066
  10 C :    0.026161
  11 C :   -0.015301
  12 C :    0.020405
  13 H :    0.006614
  14 H :    0.008425
  15 H :    0.005390
  16 H :   -0.005203
  17 H :   -0.003863
  18 H :    0.002584
  19 H :   -0.003480
  20 H :    0.009789
  21 H :    0.023473
  22 H :    0.023647
  23 H :    0.009863
  24 H :    0.002569
  25 H :   -0.003664
  26 H :   -0.005167
  27 H :   -0.003939
  28 H :    0.006624
  29 H :    0.008427
  30 H :    0.005376
  31 H :    0.009908
  32 H :    0.023693
  33 H :   -0.003270
  34 H :    0.002673
  35 H :   -0.003860
  36 H :   -0.005249
  37 H :    0.005410
  38 H :    0.006654
  39 H :    0.008443
Sum of atomic charges:   -0.0000000

LOEWDIN ATOMIC CHARGES
----------------------
   0 C :   -0.056569
   1 C :   -0.037310
   2 C :   -0.043963
   3 C :   -0.175205
   4 P :    0.452853
   5 C :   -0.175238
   6 C :   -0.043929
   7 C :   -0.037333
   8 C :   -0.056537
   9 C :   -0.175247
  10 C :   -0.044000
  11 C :   -0.037309
  12 C :   -0.056545
  13 H :    0.020926
  14 H :    0.022436
  15 H :    0.020141
  16 H :    0.017214
  17 H :    0.017531
  18 H :    0.018878
  19 H :    0.014749
  20 H :    0.011582
  21 H :    0.018659
  22 H :    0.018639
  23 H :    0.011619
  24 H :    0.018901
  25 H :    0.014682
  26 H :    0.017228
  27 H :    0.017496
  28 H :    0.020922
  29 H :    0.022428
  30 H :    0.020150
  31 H :    0.011635
  32 H :    0.018656
  33 H :    0.014748
  34 H :    0.018853
  35 H :    0.017527
  36 H :    0.017217
  37 H :    0.020146
  38 H :    0.020930
  39 H :    0.022437

  Mayer bond orders larger than 0.100000
B(  0-C ,  1-C ) :   1.1060 B(  0-C , 13-H ) :   0.9686 B(  0-C , 14-H ) :   0.9650
B(  0-C , 15-H ) :   0.9684 B(  1-C ,  2-C ) :   1.0863 B(  1-C , 16-H ) :   0.9446
B(  1-C , 17-H ) :   0.9451 B(  2-C ,  3-C ) :   1.0619 B(  2-C , 18-H ) :   0.9392
B(  2-C , 19-H ) :   0.9402 B(  3-C ,  4-P ) :   0.9656 B(  3-C , 20-H ) :   0.9242
B(  3-C , 21-H ) :   0.9383 B(  4-P ,  5-C ) :   0.9655 B(  4-P ,  9-C ) :   0.9655
B(  5-C ,  6-C ) :   1.0620 B(  5-C , 22-H ) :   0.9382 B(  5-C , 23-H ) :   0.9242
B(  6-C ,  7-C ) :   1.0863 B(  6-C , 24-H ) :   0.9393 B(  6-C , 25-H ) :   0.9400
B(  7-C ,  8-C ) :   1.1060 B(  7-C , 26-H ) :   0.9445 B(  7-C , 27-H ) :   0.9452
B(  8-C , 28-H ) :   0.9686 B(  8-C , 29-H ) :   0.9650 B(  8-C , 30-H ) :   0.9684
B(  9-C , 10-C ) :   1.0621 B(  9-C , 31-H ) :   0.9242 B(  9-C , 32-H ) :   0.9383
B( 10-C , 11-C ) :   1.0865 B( 10-C , 33-H ) :   0.9400 B( 10-C , 34-H ) :   0.9392
B( 11-C , 12-C ) :   1.1060 B( 11-C , 35-H ) :   0.9451 B( 11-C , 36-H ) :   0.9446
B( 12-C , 37-H ) :   0.9684 B( 12-C , 38-H ) :   0.9686 B( 12-C , 39-H ) :   0.9650

Dispersion correction           -0.063997213
FINAL SINGLE POINT ENERGY      -814.130818250530

DIPOLE MOMENT
-------------

Method             : SCF
Type of density    : Electron Density
Multiplicity       :   1
Irrep              :   0
Energy             :  -814.0668210378993308 Eh
Relativity type    :
Basis              : AO
                                X                 Y                 Z
Electronic contribution:      0.594522748       1.807316856      -3.669216128
Nuclear contribution   :     -0.658973517      -1.994339646       4.053451027
                        -----------------------------------------
Total Dipole Moment    :     -0.064450768      -0.187022790       0.384234899
                        -----------------------------------------
Magnitude (a.u.)       :      0.432166499
Magnitude (Debye)      :      1.098479943

Rotational constants in cm-1:             0.012947             0.012905             0.006707
Rotational constants in MHz :           388.138338           386.891292           201.066330

                             ****ORCA TERMINATED NORMALLY****
TOTAL RUN TIME: 0 days 0 hours 3 minutes 19 seconds 307 msec
