                         Program Version 6.0.0  -   RELEASE   -
|  1> ! RI BP86 def2-SVP D3BJ TIGHTSCF Opt
|  2> %pal
|  3> nprocs 6
|  4> end
|  5>
|  6> * xyz 0 1
|  7> C     -1.546569    5.009897   -0.916755
|  8> C     -0.561270    4.061465   -0.252647
|  9> C     -0.794487    2.616698   -0.689626
| 10> C      0.192442    1.663196   -0.024093
| 11> P      0.003166   -0.051845   -0.527954
| 12> O      0.014242   -0.233402   -2.018755
| 13> C      1.322301   -0.947257    0.302216
| 14> C      2.711071   -0.668927   -0.263450
| 15> C      3.783995   -1.484582    0.455047
| 16> C      5.167435   -1.204982   -0.110015
| 17> C     -1.520868   -0.615399    0.240677
| 18> C     -1.910808   -2.042386   -0.130514
| 19> C     -3.230382   -2.451472    0.520690
| 20> C     -3.616634   -3.874374    0.149832
| 21> H     -1.361768    6.038088   -0.590294
| 22> H     -2.577542    4.750628   -0.655556
| 23> H     -1.449194    4.976741   -2.006600
| 24> H     -0.662306    4.142219    0.835907
| 25> H      0.459913    4.367907   -0.507497
| 26> H     -1.818695    2.316462   -0.443023
| 27> H     -0.697588    2.535804   -1.778649
| 28> H      1.211719    1.981066   -0.268019
| 29> H      0.091219    1.721305    1.065461
| 30> H      1.296753   -0.698718    1.369140
| 31> H      1.113788   -2.019157    0.218432
| 32> H      2.936878    0.399250   -0.174215
| 33> H      2.719160   -0.902751   -1.334508
| 34> H      3.777906   -1.247214    1.525234
| 35> H      3.565981   -2.554554    0.358616
| 36> H      5.430099   -0.148031    0.000504
| 37> H      5.919793   -1.798982    0.418213
| 38> H      5.216355   -1.462172   -1.172937
| 39> H     -1.418191   -0.526986    1.328055
| 40> H     -2.326963    0.062031   -0.060598
| 41> H     -1.117184   -2.731979    0.177020
| 42> H     -1.991646   -2.123522   -1.220829
| 43> H     -3.147403   -2.373901    1.611000
| 44> H     -4.028609   -1.768982    0.206511
| 45> H     -4.563692   -4.146460    0.626229
| 46> H     -3.738885   -3.978083   -0.933054
| 47> H     -2.853532   -4.586637    0.479542
| 48> **                         ****END OF INPUT****
 Total Charge           Charge          ....    0
 Multiplicity           Mult            ....    1
 Number of Electrons    NEL             ....  122
Dispersion correction           -0.064043652
FINAL SINGLE POINT ENERGY      -889.726848343488
Dispersion correction             ... done (  0.1 sec)
Dispersion correction           -0.063210971
FINAL SINGLE POINT ENERGY      -889.735186087205
Dispersion correction             ... done (  0.1 sec)
Dispersion correction           -0.062882825
FINAL SINGLE POINT ENERGY      -889.736561465210
Dispersion correction             ... done (  0.1 sec)
FINAL SINGLE POINT ENERGY      -889.737029171950
FINAL SINGLE POINT ENERGY      -889.737109151248
Dispersion correction             ... done (  0.1 sec)
Dispersion correction           -0.062796045
FINAL SINGLE POINT ENERGY      -889.737126172044
Dispersion correction             ... done (  0.1 sec)
Dispersion correction           -0.062812443
FINAL SINGLE POINT ENERGY      -889.737130569060
Dispersion correction             ... done (  0.1 sec)
                    ***********************HURRAY********************

CARTESIAN COORDINATES (ANGSTROEM)
---------------------------------
  C     -1.526429    5.028596   -1.163673
  C     -0.607904    4.138544   -0.321377
  C     -0.797350    2.642506   -0.603334
  C      0.127429    1.741592    0.224898
  P      0.002112   -0.025602   -0.294919
  O      0.011303   -0.210498   -1.805391
  C      1.396900   -0.887708    0.553747
  C      2.729699   -0.660036   -0.170610
  C      3.883548   -1.498634    0.394321
  C      5.208049   -1.267317   -0.338854
  C     -1.531633   -0.665695    0.509291
  C     -1.926095   -2.043752   -0.037144
  C     -3.284800   -2.538152    0.475772
  C     -3.674960   -3.909213   -0.084012
  H     -1.364985    6.104739   -0.950105
  H     -2.596116    4.804808   -0.966734
  H     -1.352117    4.870755   -2.248580
  H     -0.780423    4.334826    0.760889
  H      0.455142    4.410420   -0.509214
  H     -1.859437    2.366059   -0.415838
  H     -0.618379    2.426319   -1.678539
  H      1.187654    2.039291    0.072384
  H     -0.076825    1.819300    1.315648
  H      1.437573   -0.565061    1.617541
  H      1.142712   -1.970077    0.553865
  H      3.003958    0.418039   -0.124697
  H      2.580746   -0.885162   -1.248621
  H      4.007532   -1.273523    1.477654
  H      3.607188   -2.575666    0.341774
  H      5.526908   -0.205900   -0.269449
  H      6.024316   -1.889861    0.080567
  H      5.117023   -1.513417   -1.417494
  H     -1.392384   -0.676332    1.612921
  H     -2.332886    0.073869    0.292263
  H     -1.142408   -2.790713    0.222621
  H     -1.929377   -1.987589   -1.146951
  H     -3.267870   -2.575543    1.588380
  H     -4.064762   -1.788645    0.212909
  H     -4.663287   -4.241287    0.293766
  H     -3.727679   -3.888909   -1.192660
  H     -2.931686   -4.685368    0.195725

 Multiplicity           Mult            ....    1
 Number of Electrons    NEL             ....  122
 Basis Dimension        Dim             ....  335

ORBITAL ENERGIES
----------------

  NO   OCC          E(Eh)            E(eV)
   0   2.0000     -76.399699     -2078.9415
   1   2.0000     -18.706811      -509.0382
   2   2.0000      -9.920658      -269.9548
   3   2.0000      -9.920640      -269.9543
   4   2.0000      -9.920596      -269.9531
   5   2.0000      -9.916056      -269.8296
   6   2.0000      -9.915997      -269.8280
   7   2.0000      -9.915964      -269.8271
   8   2.0000      -9.914514      -269.7876
   9   2.0000      -9.914499      -269.7872
  10   2.0000      -9.914472      -269.7865
  11   2.0000      -9.907230      -269.5894
  12   2.0000      -9.907201      -269.5887
  13   2.0000      -9.907196      -269.5885
  14   2.0000      -6.359662      -173.0552
  15   2.0000      -4.580795      -124.6498
  16   2.0000      -4.580793      -124.6497
  17   2.0000      -4.580644      -124.6456
  18   2.0000      -0.839324       -22.8392
  19   2.0000      -0.727428       -19.7943
  20   2.0000      -0.720006       -19.5924
  21   2.0000      -0.719971       -19.5914
  22   2.0000      -0.676382       -18.4053
  23   2.0000      -0.653909       -17.7938
  24   2.0000      -0.653878       -17.7929
  25   2.0000      -0.592490       -16.1225
  26   2.0000      -0.563734       -15.3400
  27   2.0000      -0.563663       -15.3380
  28   2.0000      -0.518785       -14.1168
  29   2.0000      -0.517630       -14.0854
  30   2.0000      -0.517561       -14.0835
  31   2.0000      -0.465678       -12.6717
  32   2.0000      -0.428236       -11.6529
  33   2.0000      -0.428184       -11.6515
  34   2.0000      -0.424647       -11.5552
  35   2.0000      -0.397586       -10.8189
  36   2.0000      -0.397490       -10.8163
  37   2.0000      -0.390408       -10.6236
  38   2.0000      -0.380135       -10.3440
  39   2.0000      -0.380063       -10.3421
  40   2.0000      -0.372363       -10.1325
  41   2.0000      -0.364408        -9.9160
  42   2.0000      -0.364342        -9.9142
  43   2.0000      -0.348325        -9.4784
  44   2.0000      -0.334406        -9.0997
  45   2.0000      -0.334351        -9.0982
  46   2.0000      -0.322546        -8.7769
  47   2.0000      -0.313688        -8.5359
  48   2.0000      -0.313654        -8.5350
  49   2.0000      -0.309774        -8.4294
  50   2.0000      -0.302826        -8.2403
  51   2.0000      -0.300037        -8.1644
  52   2.0000      -0.299962        -8.1624
  53   2.0000      -0.289320        -7.8728
  54   2.0000      -0.284873        -7.7518
  55   2.0000      -0.284821        -7.7504
  56   2.0000      -0.282579        -7.6894
  57   2.0000      -0.278468        -7.5775
  58   2.0000      -0.278434        -7.5766
  59   2.0000      -0.206796        -5.6272
  60   2.0000      -0.206767        -5.6264
  61   0.0000       0.020205         0.5498
  62   0.0000       0.035279         0.9600
  63   0.0000       0.035338         0.9616
  64   0.0000       0.046975         1.2783
  65   0.0000       0.050237         1.3670

MULLIKEN ATOMIC CHARGES
-----------------------
   0 C :   -0.043691
   1 C :   -0.047737
   2 C :   -0.038314
   3 C :   -0.133415
   4 P :    0.449044
   5 O :   -0.475730
   6 C :   -0.132997
   7 C :   -0.038670
   8 C :   -0.048417
   9 C :   -0.043586
  10 C :   -0.133539
  11 C :   -0.038128
  12 C :   -0.048314
  13 C :   -0.043485
  14 H :    0.030394
  15 H :    0.026904
  16 H :    0.032441
  17 H :    0.014636
  18 H :    0.020191
  19 H :    0.019919
  20 H :    0.044872
  21 H :    0.046709
  22 H :    0.036048
  23 H :    0.036020
  24 H :    0.046724
  25 H :    0.019991
  26 H :    0.045044
  27 H :    0.014704
  28 H :    0.020467
  29 H :    0.026883
  30 H :    0.030395
  31 H :    0.032448
  32 H :    0.036036
  33 H :    0.046559
  34 H :    0.019991
  35 H :    0.045007
  36 H :    0.014694
  37 H :    0.020232
  38 H :    0.030350
  39 H :    0.032447
  40 H :    0.026874
Sum of atomic charges:   -0.0000000

LOEWDIN ATOMIC CHARGES
----------------------
   0 C :   -0.074014
   1 C :   -0.051079
   2 C :   -0.055320
   3 C :   -0.194037
   4 P :    0.870213
   5 O :   -0.506506
   6 C :   -0.194048
   7 C :   -0.055426
   8 C :   -0.051074
   9 C :   -0.074008
  10 C :   -0.194146
  11 C :   -0.055310
  12 C :   -0.051105
  13 C :   -0.074023
  14 H :    0.029429
  15 H :    0.026944
  16 H :    0.029576
  17 H :    0.022978
  18 H :    0.025454
  19 H :    0.023138
  20 H :    0.033804
  21 H :    0.033694
  22 H :    0.028262
  23 H :    0.028245
  24 H :    0.033805
  25 H :    0.023096
  26 H :    0.033754
  27 H :    0.022971
  28 H :    0.025534
  29 H :    0.026918
  30 H :    0.029436
  31 H :    0.029577
  32 H :    0.028261
  33 H :    0.033684
  34 H :    0.023157
  35 H :    0.033793
  36 H :    0.022978
  37 H :    0.025467
  38 H :    0.029425
  39 H :    0.029574
  40 H :    0.026932

  Mayer bond orders larger than 0.100000
B(  0-C ,  1-C ) :   1.1146 B(  0-C , 14-H ) :   0.9618 B(  0-C , 15-H ) :   0.9658
B(  0-C , 16-H ) :   0.9659 B(  1-C ,  2-C ) :   1.0851 B(  1-C , 17-H ) :   0.9387
B(  1-C , 18-H ) :   0.9394 B(  2-C ,  3-C ) :   1.0611 B(  2-C , 19-H ) :   0.9363
B(  2-C , 20-H ) :   0.9309 B(  3-C ,  4-P ) :   0.9169 B(  3-C , 21-H ) :   0.9202
B(  3-C , 22-H ) :   0.9132 B(  4-P ,  5-O ) :   1.8510 B(  4-P ,  6-C ) :   0.9171
B(  4-P , 10-C ) :   0.9168 B(  6-C ,  7-C ) :   1.0614 B(  6-C , 23-H ) :   0.9132
B(  6-C , 24-H ) :   0.9201 B(  7-C ,  8-C ) :   1.0854 B(  7-C , 25-H ) :   0.9363
B(  7-C , 26-H ) :   0.9307 B(  8-C ,  9-C ) :   1.1146 B(  8-C , 27-H ) :   0.9388
B(  8-C , 28-H ) :   0.9394 B(  9-C , 29-H ) :   0.9658 B(  9-C , 30-H ) :   0.9618
B(  9-C , 31-H ) :   0.9659 B( 10-C , 11-C ) :   1.0612 B( 10-C , 32-H ) :   0.9131
B( 10-C , 33-H ) :   0.9201 B( 11-C , 12-C ) :   1.0852 B( 11-C , 34-H ) :   0.9363
B( 11-C , 35-H ) :   0.9309 B( 12-C , 13-C ) :   1.1146 B( 12-C , 36-H ) :   0.9387
B( 12-C , 37-H ) :   0.9394 B( 13-C , 38-H ) :   0.9618 B( 13-C , 39-H ) :   0.9659
B( 13-C , 40-H ) :   0.9657

Dispersion correction           -0.062814465
FINAL SINGLE POINT ENERGY      -889.737131296514

DIPOLE MOMENT
-------------

Method             : SCF
Type of density    : Electron Density
Multiplicity       :   1
Irrep              :   0
Energy             :  -889.6743168318191692 Eh
Relativity type    :
Basis              : AO
                                X                 Y                 Z
Electronic contribution:      0.025190462      -0.342718066      -2.659272267
Nuclear contribution   :     -0.032671908       0.505393374       3.986972561
                        -----------------------------------------
Total Dipole Moment    :     -0.007481446       0.162675309       1.327700294
                        -----------------------------------------
Magnitude (a.u.)       :      1.337649917
Magnitude (Debye)      :      3.400035883

Rotational constants in cm-1:             0.012417             0.012383             0.006655
Rotational constants in MHz :           372.241853           371.218511           199.526734

                             ****ORCA TERMINATED NORMALLY****
TOTAL RUN TIME: 0 days 0 hours 1 minutes 38 seconds 117 msec
