                         Program Version 6.0.0  -   RELEASE   -
|  1> ! RIJCOSX M062X def2-TZVP D3ZERO NormalSCF
|  2> %pal
|  3> nprocs 6
|  4> end
|  5>
|  6> * xyz 0 1
|  7>   C          -2.29252171049806     -0.83232267712843     -0.97754361826166
|  8>   P          -1.58963066169351     -0.56534306956191      0.73452101691008
|  9>   C          -2.11004533677527      1.21242122666832      0.99231711287561
| 10>   C           0.20846409646046     -0.32286453557806      0.31616285204493
| 11>   C           0.66696646096495      0.57461037506947     -0.67235419956066
| 12>   C           2.03779176390828      0.70836473313722     -0.93975662628010
| 13>   C           2.97414596043848     -0.05523080790972     -0.22005070358818
| 14>   C           2.53207318076771     -0.95095811828996      0.76632401909723
| 15>   C           1.15793665833021     -1.08260711310382      1.03103373029638
| 16>   H          -3.39866629065822     -0.87454887039600     -0.90790973596074
| 17>   H          -2.01137601145266     -0.03391687022563     -1.69557471170611
| 18>   H          -1.93601484510660     -1.80597575607207     -1.36853307138436
| 19>   H          -1.84488472794942      1.87554638688846      0.14236810080999
| 20>   H          -3.20895380036166      1.24566037218599      1.13913614306729
| 21>   H          -1.62935424223197      1.60156481340292      1.91181675418742
| 22>   H          -0.05360640539851      1.18061185258976     -1.24509834164759
| 23>   H           2.37954385178625      1.41239357877148     -1.71452656782679
| 24>   H           4.04971941183239      0.04966789957515     -0.43019923942079
| 25>   H           3.26004258227766     -1.55157920893394      1.33344337314871
| 26>   H           0.80837006535949     -1.78549521108921      1.80442171319935
| 27> **                         ****END OF INPUT****

CARTESIAN COORDINATES (ANGSTROEM)
---------------------------------
  C     -2.292522   -0.832323   -0.977544
  P     -1.589631   -0.565343    0.734521
  C     -2.110045    1.212421    0.992317
  C      0.208464   -0.322865    0.316163
  C      0.666966    0.574610   -0.672354
  C      2.037792    0.708365   -0.939757
  C      2.974146   -0.055231   -0.220051
  C      2.532073   -0.950958    0.766324
  C      1.157937   -1.082607    1.031034
  H     -3.398666   -0.874549   -0.907910
  H     -2.011376   -0.033917   -1.695575
  H     -1.936015   -1.805976   -1.368533
  H     -1.844885    1.875546    0.142368
  H     -3.208954    1.245660    1.139136
  H     -1.629354    1.601565    1.911817
  H     -0.053606    1.180612   -1.245098
  H      2.379544    1.412394   -1.714527
  H      4.049719    0.049668   -0.430199
  H      3.260043   -1.551579    1.333443
  H      0.808370   -1.785495    1.804422

 Total Charge           Charge          ....    0
 Multiplicity           Mult            ....    1
 Number of Electrons    NEL             ....   74
 Basis Dimension        Dim             ....  351

ORBITAL ENERGIES
----------------

  NO   OCC          E(Eh)            E(eV)
   0   2.0000     -78.022854     -2123.1098
   1   2.0000     -10.552757      -287.1551
   2   2.0000     -10.552228      -287.1407
   3   2.0000     -10.551118      -287.1105
   4   2.0000     -10.550929      -287.1054
   5   2.0000     -10.550441      -287.0921
   6   2.0000     -10.549813      -287.0750
   7   2.0000     -10.535895      -286.6963
   8   2.0000     -10.535867      -286.6955
   9   2.0000      -6.838332      -186.0805
  10   2.0000      -4.952917      -134.7757
  11   2.0000      -4.952555      -134.7659
  12   2.0000      -4.952331      -134.7598
  13   2.0000      -0.955585       -26.0028
  14   2.0000      -0.856617       -23.3097
  15   2.0000      -0.840782       -22.8789
  16   2.0000      -0.814094       -22.1526
  17   2.0000      -0.772735       -21.0272
  18   2.0000      -0.690644       -18.7934
  19   2.0000      -0.683737       -18.6054
  20   2.0000      -0.619476       -16.8568
  21   2.0000      -0.575161       -15.6509
  22   2.0000      -0.518719       -14.1151
  23   2.0000      -0.518107       -14.0984
  24   2.0000      -0.493857       -13.4385
  25   2.0000      -0.487861       -13.2754
  26   2.0000      -0.478473       -13.0199
  27   2.0000      -0.468482       -12.7481
  28   2.0000      -0.460197       -12.5226
  29   2.0000      -0.442629       -12.0446
  30   2.0000      -0.436417       -11.8755
  31   2.0000      -0.403917       -10.9912
  32   2.0000      -0.385568       -10.4918
  33   2.0000      -0.368659       -10.0317
  34   2.0000      -0.309797        -8.4300
  35   2.0000      -0.305482        -8.3126
  36   2.0000      -0.282271        -7.6810
  37   0.0000       0.003014         0.0820
  38   0.0000       0.015864         0.4317
  39   0.0000       0.065310         1.7772
  40   0.0000       0.074310         2.0221
  41   0.0000       0.077272         2.1027

MULLIKEN ATOMIC CHARGES
-----------------------
   0 C :   -0.515684
   1 P :    0.171648
   2 C :   -0.516544
   3 C :   -0.039772
   4 C :   -0.171702
   5 C :   -0.173773
   6 C :   -0.137186
   7 C :   -0.153050
   8 C :   -0.127778
   9 H :    0.154700
  10 H :    0.145950
  11 H :    0.162680
  12 H :    0.146147
  13 H :    0.155107
  14 H :    0.162529
  15 H :    0.149465
  16 H :    0.143423
  17 H :    0.145206
  18 H :    0.144589
  19 H :    0.154047
Sum of atomic charges:   -0.0000000

LOEWDIN ATOMIC CHARGES
----------------------
   0 C :   -0.485114
   1 P :    0.537013
   2 C :   -0.485276
   3 C :   -0.285283
   4 C :   -0.141194
   5 C :   -0.144597
   6 C :   -0.140892
   7 C :   -0.143830
   8 C :   -0.145805
   9 H :    0.119185
  10 H :    0.109386
  11 H :    0.122105
  12 H :    0.109507
  13 H :    0.119196
  14 H :    0.122078
  15 H :    0.144400
  16 H :    0.146972
  17 H :    0.147020
  18 H :    0.147311
  19 H :    0.147817

  Mayer bond orders larger than 0.100000
B(  0-C ,  1-P ) :   0.9780 B(  0-C ,  9-H ) :   0.9505 B(  0-C , 10-H ) :   0.9480
B(  0-C , 11-H ) :   0.9526 B(  1-P ,  2-C ) :   0.9781 B(  1-P ,  3-C ) :   0.9507
B(  2-C , 12-H ) :   0.9479 B(  2-C , 13-H ) :   0.9502 B(  2-C , 14-H ) :   0.9526
B(  3-C ,  4-C ) :   1.3463 B(  3-C ,  8-C ) :   1.3971 B(  4-C ,  5-C ) :   1.5080
B(  4-C , 15-H ) :   0.9130 B(  5-C ,  6-C ) :   1.4324 B(  5-C , 16-H ) :   0.9428
B(  6-C ,  7-C ) :   1.4532 B(  6-C , 17-H ) :   0.9455 B(  7-C ,  8-C ) :   1.4480
B(  7-C , 18-H ) :   0.9483 B(  8-C , 19-H ) :   0.9282

Dispersion correction           -0.000631659
FINAL SINGLE POINT ENERGY      -652.786880308715

DIPOLE MOMENT
-------------

Method             : SCF
Type of density    : Electron Density
Multiplicity       :   1
Irrep              :   0
Energy             :  -652.7862486497638201 Eh
Relativity type    :
Basis              : AO
                                X                 Y                 Z
Electronic contribution:      2.703348095      -3.153027762       3.020615758
Nuclear contribution   :     -2.578021124       3.455793281      -3.347417118
                        -----------------------------------------
Total Dipole Moment    :      0.125326971       0.302765519      -0.326801361
                        -----------------------------------------
Magnitude (a.u.)       :      0.462788222
Magnitude (Debye)      :      1.176314177

Rotational constants in cm-1:             0.094036             0.028605             0.026638
Rotational constants in MHz :          2819.134760           857.556130           798.595302

                             ****ORCA TERMINATED NORMALLY****
TOTAL RUN TIME: 0 days 0 hours 0 minutes 28 seconds 989 msec
