                         Program Version 6.0.0  -   RELEASE   -
|  1> ! RI BP86 def2-SVP D3BJ TIGHTSCF Opt
|  2> %pal
|  3> nprocs 6
|  4> end
|  5>
|  6> * xyz 0 1
|  7> C      5.231090    1.138130    0.106683
|  8> C      3.829150    1.644308    0.406653
|  9> C      2.768097    0.827426   -0.332714
| 10> C      1.361819    1.343425   -0.023235
| 11> P      0.055063    0.416204   -0.949928
| 12> C     -1.449865    1.223578   -0.236173
| 13> C     -2.744878    0.592442   -0.750235
| 14> C     -3.970290    1.311869   -0.184034
| 15> C     -5.263290    0.690826   -0.688109
| 16> C      0.061664   -1.205659   -0.124254
| 17> C     -0.036638   -1.366173    1.264113
| 18> C     -0.025958   -2.639983    1.840048
| 19> C      0.083216   -3.770707    1.034892
| 20> C      0.181763   -3.628653   -0.346314
| 21> C      0.171000   -2.355026   -0.921042
| 22> H      5.973156    1.735931    0.645072
| 23> H      5.346008    0.094494    0.416461
| 24> H      5.451944    1.205568   -0.963360
| 25> H      3.652186    1.592934    1.487296
| 26> H      3.757712    2.698662    0.115253
| 27> H      2.860026   -0.226813   -0.043237
| 28> H      2.958549    0.877544   -1.412560
| 29> H      1.175888    1.306304    1.055372
| 30> H      1.292973    2.397062   -0.318777
| 31> H     -1.425731    1.195406    0.858344
| 32> H     -1.426767    2.281135   -0.524747
| 33> H     -2.789751   -0.467627   -0.471119
| 34> H     -2.774375    0.633185   -1.846739
| 35> H     -3.945320    2.370332   -0.468130
| 36> H     -3.954092    1.268725    0.911238
| 37> H     -6.125748    1.220237   -0.271237
| 38> H     -5.325674    0.746198   -1.779603
| 39> H     -5.334757   -0.360755   -0.392452
| 40> H     -0.123106   -0.505621    1.921507
| 41> H     -0.103085   -2.747235    2.918817
| 42> H      0.091496   -4.760702    1.482766
| 43> H      0.267207   -4.507327   -0.980007
| 44> H      0.249315   -2.269642   -2.003205
| 45> **                         ****END OF INPUT****
 Total Charge           Charge          ....    0
 Multiplicity           Mult            ....    1
 Number of Electrons    NEL             ....  122
Dispersion correction           -0.066809316
FINAL SINGLE POINT ENERGY      -888.285052981379
Dispersion correction             ... done (  0.1 sec)
Dispersion correction           -0.066456849
FINAL SINGLE POINT ENERGY      -888.291490693372
Dispersion correction             ... done (  0.1 sec)
Dispersion correction           -0.066695897
FINAL SINGLE POINT ENERGY      -888.292199656535
Dispersion correction             ... done (  0.1 sec)
FINAL SINGLE POINT ENERGY      -888.292375123254
FINAL SINGLE POINT ENERGY      -888.292403104846
FINAL SINGLE POINT ENERGY      -888.292408068463
FINAL SINGLE POINT ENERGY      -888.292409317717
FINAL SINGLE POINT ENERGY      -888.292409996860
FINAL SINGLE POINT ENERGY      -888.292410744205
Dispersion correction             ... done (  0.1 sec)
Dispersion correction           -0.066852233
FINAL SINGLE POINT ENERGY      -888.292411842847
Dispersion correction             ... done (  0.1 sec)
Dispersion correction           -0.066856566
FINAL SINGLE POINT ENERGY      -888.292412814235
Dispersion correction             ... done (  0.1 sec)
                    ***********************HURRAY********************

CARTESIAN COORDINATES (ANGSTROEM)
---------------------------------
  C      5.263755    0.927522    0.238495
  C      3.879316    1.550443    0.443010
  C      2.768744    0.822619   -0.327115
  C      1.378123    1.430968   -0.115812
  P      0.051311    0.549447   -1.112344
  C     -1.471088    1.330929   -0.338917
  C     -2.765883    0.609164   -0.728283
  C     -4.027070    1.254283   -0.137264
  C     -5.315488    0.514924   -0.511044
  C      0.057371   -1.091786   -0.236633
  C     -0.132841   -1.230099    1.155714
  C     -0.105903   -2.495580    1.761006
  C      0.114733   -3.645544    0.981422
  C      0.306159   -3.522322   -0.403956
  C      0.275302   -2.252944   -1.007037
  H      6.046715    1.467804    0.808769
  H      5.279757   -0.132656    0.568411
  H      5.558289    0.943438   -0.832102
  H      3.625825    1.555048    1.527023
  H      3.898095    2.620059    0.134738
  H      2.749274   -0.246717   -0.019079
  H      3.010668    0.818576   -1.413902
  H      1.109931    1.425025    0.964763
  H      1.364710    2.494713   -0.442072
  H     -1.366027    1.372939    0.768692
  H     -1.493397    2.385875   -0.691777
  H     -2.706983   -0.451222   -0.395336
  H     -2.850478    0.571706   -1.837719
  H     -4.089242    2.313802   -0.473580
  H     -3.926804    1.296967    0.970742
  H     -6.210618    0.998412   -0.069336
  H     -5.458691    0.486817   -1.611863
  H     -5.292130   -0.536802   -0.155558
  H     -0.304821   -0.338631    1.780331
  H     -0.256880   -2.587815    2.848046
  H      0.136217   -4.638400    1.456793
  H      0.478457   -4.418986   -1.019411
  H      0.421587   -2.151973   -2.094514

 Multiplicity           Mult            ....    1
 Number of Electrons    NEL             ....  122
 Basis Dimension        Dim             ....  329

ORBITAL ENERGIES
----------------

  NO   OCC          E(Eh)            E(eV)
   0   2.0000     -76.330551     -2077.0599
   1   2.0000      -9.923994      -270.0456
   2   2.0000      -9.923552      -270.0336
   3   2.0000      -9.923315      -270.0271
   4   2.0000      -9.922041      -269.9925
   5   2.0000      -9.921504      -269.9778
   6   2.0000      -9.921314      -269.9727
   7   2.0000      -9.914239      -269.7802
   8   2.0000      -9.913814      -269.7686
   9   2.0000      -9.910375      -269.6750
  10   2.0000      -9.910302      -269.6730
  11   2.0000      -9.909980      -269.6643
  12   2.0000      -9.909878      -269.6615
  13   2.0000      -9.904773      -269.5226
  14   2.0000      -9.904562      -269.5168
  15   2.0000      -6.299873      -171.4282
  16   2.0000      -4.521517      -123.0367
  17   2.0000      -4.521074      -123.0247
  18   2.0000      -4.517592      -122.9299
  19   2.0000      -0.772198       -21.0126
  20   2.0000      -0.721891       -19.6436
  21   2.0000      -0.713923       -19.4268
  22   2.0000      -0.682429       -18.5698
  23   2.0000      -0.669976       -18.2310
  24   2.0000      -0.655626       -17.8405
  25   2.0000      -0.645955       -17.5773
  26   2.0000      -0.586928       -15.9711
  27   2.0000      -0.551855       -15.0167
  28   2.0000      -0.544639       -14.8204
  29   2.0000      -0.538243       -14.6463
  30   2.0000      -0.514871       -14.0104
  31   2.0000      -0.508222       -13.8294
  32   2.0000      -0.487363       -13.2618
  33   2.0000      -0.451563       -12.2876
  34   2.0000      -0.422117       -11.4864
  35   2.0000      -0.418241       -11.3809
  36   2.0000      -0.404852       -11.0166
  37   2.0000      -0.398498       -10.8437
  38   2.0000      -0.384846       -10.4722
  39   2.0000      -0.384079       -10.4513
  40   2.0000      -0.380105       -10.3432
  41   2.0000      -0.372666       -10.1408
  42   2.0000      -0.365532        -9.9466
  43   2.0000      -0.360119        -9.7993
  44   2.0000      -0.354357        -9.6425
  45   2.0000      -0.337202        -9.1757
  46   2.0000      -0.332767        -9.0551
  47   2.0000      -0.322091        -8.7646
  48   2.0000      -0.313044        -8.5184
  49   2.0000      -0.309559        -8.4235
  50   2.0000      -0.305537        -8.3141
  51   2.0000      -0.304729        -8.2921
  52   2.0000      -0.296916        -8.0795
  53   2.0000      -0.292677        -7.9641
  54   2.0000      -0.281219        -7.6524
  55   2.0000      -0.279131        -7.5955
  56   2.0000      -0.272825        -7.4240
  57   2.0000      -0.263146        -7.1606
  58   2.0000      -0.233640        -6.3577
  59   2.0000      -0.228924        -6.2293
  60   2.0000      -0.197484        -5.3738
  61   0.0000      -0.055427        -1.5083
  62   0.0000      -0.045342        -1.2338
  63   0.0000       0.026365         0.7174
  64   0.0000       0.028418         0.7733
  65   0.0000       0.031778         0.8647

MULLIKEN ATOMIC CHARGES
-----------------------
   0 C :   -0.042618
   1 C :   -0.057926
   2 C :   -0.020508
   3 C :   -0.151366
   4 P :    0.172648
   5 C :   -0.156078
   6 C :   -0.019084
   7 C :   -0.058174
   8 C :   -0.042470
   9 C :   -0.138931
  10 C :   -0.000561
  11 C :    0.002692
  12 C :    0.001273
  13 C :   -0.000197
  14 C :    0.011315
  15 H :    0.028876
  16 H :    0.028360
  17 H :    0.027021
  18 H :    0.016823
  19 H :    0.017301
  20 H :    0.032857
  21 H :    0.022563
  22 H :    0.028620
  23 H :    0.044973
  24 H :    0.027976
  25 H :    0.045262
  26 H :    0.032113
  27 H :    0.023288
  28 H :    0.017628
  29 H :    0.016247
  30 H :    0.028953
  31 H :    0.027276
  32 H :    0.028426
  33 H :   -0.004814
  34 H :    0.001068
  35 H :    0.005169
  36 H :    0.004637
  37 H :   -0.000637
Sum of atomic charges:   -0.0000000

LOEWDIN ATOMIC CHARGES
----------------------
   0 C :   -0.074642
   1 C :   -0.051132
   2 C :   -0.058341
   3 C :   -0.180515
   4 P :    0.454953
   5 C :   -0.182630
   6 C :   -0.058079
   7 C :   -0.051139
   8 C :   -0.074608
   9 C :   -0.173588
  10 C :   -0.034363
  11 C :   -0.031835
  12 C :   -0.028268
  13 C :   -0.031553
  14 C :   -0.034866
  15 H :    0.028656
  16 H :    0.027476
  17 H :    0.027066
  18 H :    0.024098
  19 H :    0.023832
  20 H :    0.027584
  21 H :    0.025293
  22 H :    0.017337
  23 H :    0.027087
  24 H :    0.016380
  25 H :    0.027953
  26 H :    0.027178
  27 H :    0.025893
  28 H :    0.023930
  29 H :    0.023836
  30 H :    0.028696
  31 H :    0.027206
  32 H :    0.027506
  33 H :    0.026017
  34 H :    0.032223
  35 H :    0.032848
  36 H :    0.033238
  37 H :    0.029273

  Mayer bond orders larger than 0.100000
B(  0-C ,  1-C ) :   1.1127 B(  0-C , 15-H ) :   0.9620 B(  0-C , 16-H ) :   0.9659
B(  0-C , 17-H ) :   0.9659 B(  1-C ,  2-C ) :   1.0909 B(  1-C , 18-H ) :   0.9397
B(  1-C , 19-H ) :   0.9412 B(  2-C ,  3-C ) :   1.0610 B(  2-C , 20-H ) :   0.9355
B(  2-C , 21-H ) :   0.9335 B(  3-C ,  4-P ) :   0.9642 B(  3-C , 22-H ) :   0.9180
B(  3-C , 23-H ) :   0.9335 B(  4-P ,  5-C ) :   0.9652 B(  4-P ,  9-C ) :   0.9207
B(  5-C ,  6-C ) :   1.0615 B(  5-C , 24-H ) :   0.9167 B(  5-C , 25-H ) :   0.9323
B(  6-C ,  7-C ) :   1.0906 B(  6-C , 26-H ) :   0.9351 B(  6-C , 27-H ) :   0.9334
B(  7-C ,  8-C ) :   1.1127 B(  7-C , 28-H ) :   0.9412 B(  7-C , 29-H ) :   0.9395
B(  8-C , 30-H ) :   0.9620 B(  8-C , 31-H ) :   0.9659 B(  8-C , 32-H ) :   0.9659
B(  9-C , 10-C ) :   1.3476 B(  9-C , 14-C ) :   1.3904 B( 10-C , 11-C ) :   1.4109
B( 10-C , 33-H ) :   0.9670 B( 11-C , 12-C ) :   1.3707 B( 11-C , 34-H ) :   0.9741
B( 12-C , 13-C ) :   1.3900 B( 12-C , 35-H ) :   0.9755 B( 13-C , 14-C ) :   1.3786
B( 13-C , 36-H ) :   0.9768 B( 14-C , 37-H ) :   0.9741

Dispersion correction           -0.066851475
FINAL SINGLE POINT ENERGY      -888.292414066775

DIPOLE MOMENT
-------------

Method             : SCF
Type of density    : Electron Density
Multiplicity       :   1
Irrep              :   0
Energy             :  -888.2255625922086892 Eh
Relativity type    :
Basis              : AO
                                X                 Y                 Z
Electronic contribution:      0.646500133      -8.866655169      -3.514286496
Nuclear contribution   :     -0.678936480       8.835795967       3.986956641
                        -----------------------------------------
Total Dipole Moment    :     -0.032436347      -0.030859202       0.472670145
                        -----------------------------------------
Magnitude (a.u.)       :      0.474785713
Magnitude (Debye)      :      1.206809375

Rotational constants in cm-1:             0.019954             0.009786             0.007353
Rotational constants in MHz :           598.200890           293.373895           220.423126

                             ****ORCA TERMINATED NORMALLY****
TOTAL RUN TIME: 0 days 0 hours 2 minutes 24 seconds 86 msec
