                         Program Version 6.0.0  -   RELEASE   -
|  1> ! RIJONX B3LYP def2-SVP D3BJ TIGHTSCF Opt
|  2> %pal
|  3> nprocs 6
|  4> end
|  5>
|  6> * xyz 0 1
|  7> C     -4.280720    6.720738    1.116819
|  8> C     -2.906432    6.084818    1.263689
|  9> C     -2.513326    5.312372    0.004510
| 10> C     -1.084785    4.759986    0.047022
| 11> C     -0.891584    3.657291    1.090812
| 12> C      0.536658    3.101511    1.132973
| 13> C      1.056308    2.470077   -0.166642
| 14> C      0.191914    1.359306   -0.766387
| 15> P      0.072134   -0.166645    0.278460
| 16> C     -1.017039   -1.186707   -0.815149
| 17> C     -1.737443   -2.332248   -0.097109
| 18> C     -2.775567   -1.924327    0.959826
| 19> C     -3.968304   -1.097496    0.463294
| 20> C     -5.204018   -1.918140    0.076158
| 21> C     -5.079372   -2.800451   -1.166779
| 22> C     -4.718451   -2.072547   -2.463440
| 23> C     -5.729260   -1.009102   -2.864720
| 24> C      1.741324   -0.901867   -0.054846
| 25> C      1.938158   -2.265883    0.605312
| 26> C      3.345713   -2.839187    0.396642
| 27> C      4.435374   -2.049071    1.127186
| 28> C      5.799274   -2.749583    1.124927
| 29> C      6.421607   -2.858693   -0.269698
| 30> C      7.787990   -3.550237   -0.270606
| 31> C      8.871450   -2.761842    0.449048
| 32> H     -4.294443    7.438346    0.290095
| 33> H     -4.551663    7.254088    2.033704
| 34> H     -5.045963    5.961058    0.925413
| 35> H     -2.167997    6.868770    1.466675
| 36> H     -2.921446    5.417412    2.131620
| 37> H     -3.220642    4.491287   -0.163256
| 38> H     -2.593875    5.979480   -0.862665
| 39> H     -0.854735    4.365564   -0.949339
| 40> H     -0.379151    5.577966    0.235990
| 41> H     -1.606831    2.846484    0.913353
| 42> H     -1.117782    4.053647    2.087351
| 43> H      0.598312    2.366909    1.945052
| 44> H      1.220743    3.912841    1.413564
| 45> H      1.166982    3.259928   -0.919833
| 46> H      2.072080    2.098349    0.016162
| 47> H      0.603840    1.081880   -1.743829
| 48> H     -0.818045    1.736644   -0.957105
| 49> H     -1.753577   -0.532786   -1.290688
| 50> H     -0.415196   -1.600595   -1.632265
| 51> H     -1.003995   -2.982280    0.393348
| 52> H     -2.221242   -2.955149   -0.855636
| 53> H     -3.141840   -2.831310    1.457070
| 54> H     -2.266220   -1.350033    1.743118
| 55> H     -3.689592   -0.413216   -0.341756
| 56> H     -4.278039   -0.453108    1.297288
| 57> H     -5.484870   -2.555686    0.924280
| 58> H     -6.045118   -1.227442   -0.060987
| 59> H     -6.037162   -3.316759   -1.312902
| 60> H     -4.344723   -3.591654   -0.982692
| 61> H     -4.656368   -2.815075   -3.268247
| 62> H     -3.726079   -1.618396   -2.387283
| 63> H     -6.740546   -1.425310   -2.915162
| 64> H     -5.733401   -0.173191   -2.158272
| 65> H     -5.478855   -0.606768   -3.851972
| 66> H      2.482932   -0.198319    0.334942
| 67> H      1.907952   -0.981887   -1.134956
| 68> H      1.227371   -2.983362    0.180428
| 69> H      1.723230   -2.209522    1.679989
| 70> H      3.560562   -2.880021   -0.677297
| 71> H      3.348926   -3.873638    0.762212
| 72> H      4.130974   -1.900474    2.170755
| 73> H      4.544684   -1.053535    0.682749
| 74> H      6.465953   -2.177907    1.780644
| 75> H      5.700763   -3.748339    1.567144
| 76> H      5.757852   -3.435406   -0.923461
| 77> H      6.515234   -1.860452   -0.713641
| 78> H      7.702314   -4.547088    0.177934
| 79> H      8.100140   -3.696869   -1.311827
| 80> H      9.842342   -3.250404    0.315386
| 81> H      8.677497   -2.702909    1.524245
| 82> H      8.947113   -1.743837    0.052846
| 83> **                         ****END OF INPUT****
 Total Charge           Charge          ....    0
 Multiplicity           Mult            ....    1
 Number of Electrons    NEL             ....  210
Dispersion correction           -0.134456942
FINAL SINGLE POINT ENERGY     -1285.249455135731
Dispersion correction             ... done (  0.1 sec)
Dispersion correction           -0.134437836
FINAL SINGLE POINT ENERGY     -1285.254473522749
Dispersion correction             ... done (  0.1 sec)
Dispersion correction           -0.134245423
FINAL SINGLE POINT ENERGY     -1285.255382618817
Dispersion correction             ... done (  0.1 sec)
FINAL SINGLE POINT ENERGY     -1285.255798927045
FINAL SINGLE POINT ENERGY     -1285.255938125202
FINAL SINGLE POINT ENERGY     -1285.256011091162
FINAL SINGLE POINT ENERGY     -1285.256029107554
FINAL SINGLE POINT ENERGY     -1285.256035190722
Dispersion correction             ... done (  0.1 sec)
Dispersion correction           -0.135185844
FINAL SINGLE POINT ENERGY     -1285.256037228071
Dispersion correction             ... done (  0.1 sec)
Dispersion correction           -0.135185287
FINAL SINGLE POINT ENERGY     -1285.256038555882
Dispersion correction             ... done (  0.1 sec)
                    ***********************HURRAY********************

CARTESIAN COORDINATES (ANGSTROEM)
---------------------------------
  C     -4.199113    6.267572    1.621276
  C     -2.762912    5.766402    1.472237
  C     -2.517438    5.035895    0.148974
  C     -1.072516    4.577640   -0.080944
  C     -0.578937    3.519299    0.909427
  C      0.849824    3.023311    0.656639
  C      1.095770    2.391921   -0.722437
  C      0.123691    1.268716   -1.107404
  P     -0.035556   -0.104254    0.157432
  C     -1.106364   -1.261808   -0.861790
  C     -1.861286   -2.328620   -0.054451
  C     -2.846831   -1.768535    0.984177
  C     -4.028510   -0.937942    0.452726
  C     -5.273273   -1.728051    0.020069
  C     -5.130122   -2.659275   -1.192486
  C     -4.654873   -1.991950   -2.490159
  C     -5.550059   -0.851043   -2.976097
  C      1.646287   -0.891195   -0.056414
  C      1.834674   -2.185608    0.740455
  C      3.241209   -2.789213    0.631820
  C      4.346799   -1.932282    1.256501
  C      5.736014   -2.581464    1.254156
  C      6.341800   -2.777192   -0.139465
  C      7.736179   -3.416948   -0.143956
  C      8.830336   -2.564153    0.501367
  H     -4.464091    6.968317    0.811368
  H     -4.350953    6.791040    2.578942
  H     -4.918409    5.432051    1.580303
  H     -2.061875    6.618224    1.548719
  H     -2.520815    5.100278    2.318210
  H     -3.189320    4.158597    0.089833
  H     -2.818538    5.700150   -0.681442
  H     -0.994145    4.183527   -1.108727
  H     -0.398944    5.454832   -0.043908
  H     -1.272330    2.659190    0.902049
  H     -0.624382    3.922768    1.934930
  H      1.102438    2.288396    1.440281
  H      1.555795    3.863359    0.785904
  H      1.050988    3.171282   -1.503106
  H      2.130397    2.008928   -0.754184
  H      0.413387    0.838328   -2.082628
  H     -0.893555    1.676027   -1.237202
  H     -1.826283   -0.619041   -1.395307
  H     -0.487177   -1.736567   -1.643126
  H     -1.133126   -2.966759    0.474537
  H     -2.382584   -2.997194   -0.758662
  H     -3.244155   -2.606289    1.585188
  H     -2.267421   -1.142594    1.682877
  H     -3.693669   -0.280086   -0.368371
  H     -4.345094   -0.249143    1.254377
  H     -5.619312   -2.329820    0.879791
  H     -6.085730   -1.007393   -0.178989
  H     -6.112550   -3.130754   -1.378286
  H     -4.447565   -3.490013   -0.945614
  H     -4.592423   -2.764892   -3.276185
  H     -3.624827   -1.617729   -2.363282
  H     -6.594183   -1.186807   -3.097929
  H     -5.557456   -0.005692   -2.269304
  H     -5.209652   -0.461695   -3.949126
  H      2.377555   -0.135656    0.275331
  H      1.840134   -1.070248   -1.130806
  H      1.103656   -2.935261    0.393552
  H      1.595689   -1.997036    1.802892
  H      3.466003   -2.979544   -0.432577
  H      3.242177   -3.778867    1.123813
  H      4.061519   -1.697883    2.298058
  H      4.408127   -0.960310    0.735007
  H      6.413402   -1.958708    1.862646
  H      5.683673   -3.560865    1.766554
  H      5.667172   -3.403512   -0.747604
  H      6.388715   -1.797512   -0.652493
  H      7.684783   -4.397283    0.364897
  H      8.020624   -3.635501   -1.188201
  H      9.816876   -3.047329    0.415000
  H      8.642814   -2.393224    1.573513
  H      8.899856   -1.575314    0.016423

 Multiplicity           Mult            ....    1
 Number of Electrons    NEL             ....  210
 Basis Dimension        Dim             ....  609

ORBITAL ENERGIES
----------------

  NO   OCC          E(Eh)            E(eV)
   0   2.0000     -77.029165     -2096.0701
   1   2.0000     -10.180022      -277.0125
   2   2.0000     -10.179654      -277.0025
   3   2.0000     -10.178548      -276.9724
   4   2.0000     -10.177627      -276.9473
   5   2.0000     -10.177308      -276.9386
   6   2.0000     -10.177128      -276.9337
   7   2.0000     -10.177120      -276.9335
   8   2.0000     -10.175788      -276.8973
   9   2.0000     -10.175550      -276.8908
  10   2.0000     -10.175056      -276.8774
  11   2.0000     -10.174530      -276.8630
  12   2.0000     -10.174304      -276.8569
  13   2.0000     -10.173865      -276.8449
  14   2.0000     -10.173022      -276.8220
  15   2.0000     -10.172764      -276.8150
  16   2.0000     -10.172739      -276.8143
  17   2.0000     -10.172665      -276.8123
  18   2.0000     -10.172452      -276.8065
  19   2.0000     -10.172304      -276.8025
  20   2.0000     -10.172129      -276.7977
  21   2.0000     -10.171855      -276.7902
  22   2.0000     -10.171407      -276.7781
  23   2.0000     -10.169897      -276.7370
  24   2.0000     -10.169226      -276.7187
  25   2.0000      -6.526177      -177.5863
  26   2.0000      -4.691573      -127.6642
  27   2.0000      -4.691525      -127.6629
  28   2.0000      -4.688551      -127.5820
  29   2.0000      -0.804149       -21.8820
  30   2.0000      -0.800131       -21.7727
  31   2.0000      -0.798876       -21.7385
  32   2.0000      -0.782603       -21.2957
  33   2.0000      -0.773972       -21.0608
  34   2.0000      -0.770719       -20.9723
  35   2.0000      -0.745576       -20.2882
  36   2.0000      -0.732009       -19.9190
  37   2.0000      -0.730334       -19.8734
  38   2.0000      -0.700991       -19.0749
  39   2.0000      -0.683962       -18.6115
  40   2.0000      -0.681603       -18.5474
  41   2.0000      -0.657002       -17.8779
  42   2.0000      -0.642686       -17.4884
  43   2.0000      -0.634589       -17.2680
  44   2.0000      -0.610490       -16.6123
  45   2.0000      -0.599492       -16.3130
  46   2.0000      -0.597051       -16.2466
  47   2.0000      -0.573225       -15.5983
  48   2.0000      -0.564586       -15.3632
  49   2.0000      -0.558829       -15.2065
  50   2.0000      -0.546068       -14.8593
  51   2.0000      -0.539084       -14.6692
  52   2.0000      -0.527720       -14.3600
  53   2.0000      -0.509294       -13.8586
  54   2.0000      -0.470912       -12.8142
  55   2.0000      -0.469109       -12.7651
  56   2.0000      -0.464973       -12.6526
  57   2.0000      -0.460411       -12.5284
  58   2.0000      -0.458419       -12.4742
  59   2.0000      -0.454340       -12.3632
  60   2.0000      -0.450086       -12.2475
  61   2.0000      -0.447173       -12.1682
  62   2.0000      -0.441548       -12.0151
  63   2.0000      -0.429876       -11.6975
  64   2.0000      -0.427400       -11.6301
  65   2.0000      -0.420379       -11.4391
  66   2.0000      -0.418125       -11.3778
  67   2.0000      -0.411697       -11.2028
  68   2.0000      -0.409309       -11.1379
  69   2.0000      -0.403980       -10.9929
  70   2.0000      -0.400864       -10.9081
  71   2.0000      -0.397319       -10.8116
  72   2.0000      -0.394295       -10.7293
  73   2.0000      -0.388290       -10.5659
  74   2.0000      -0.387073       -10.5328
  75   2.0000      -0.380808       -10.3623
  76   2.0000      -0.376737       -10.2515
  77   2.0000      -0.373114       -10.1529
  78   2.0000      -0.368369       -10.0238
  79   2.0000      -0.361503        -9.8370
  80   2.0000      -0.359296        -9.7769
  81   2.0000      -0.357358        -9.7242
  82   2.0000      -0.353892        -9.6299
  83   2.0000      -0.346468        -9.4279
  84   2.0000      -0.341648        -9.2967
  85   2.0000      -0.338296        -9.2055
  86   2.0000      -0.336754        -9.1635
  87   2.0000      -0.332427        -9.0458
  88   2.0000      -0.329423        -8.9641
  89   2.0000      -0.326288        -8.8788
  90   2.0000      -0.325487        -8.8570
  91   2.0000      -0.322195        -8.7674
  92   2.0000      -0.319819        -8.7027
  93   2.0000      -0.316656        -8.6166
  94   2.0000      -0.314940        -8.5700
  95   2.0000      -0.311145        -8.4667
  96   2.0000      -0.308395        -8.3919
  97   2.0000      -0.306510        -8.3406
  98   2.0000      -0.305652        -8.3172
  99   2.0000      -0.302357        -8.2276
 100   2.0000      -0.301576        -8.2063
 101   2.0000      -0.300782        -8.1847
 102   2.0000      -0.287373        -7.8198
 103   2.0000      -0.285983        -7.7820
 104   2.0000      -0.213647        -5.8136
 105   0.0000       0.041540         1.1304
 106   0.0000       0.045595         1.2407
 107   0.0000       0.046644         1.2692
 108   0.0000       0.059882         1.6295
 109   0.0000       0.064358         1.7513

MULLIKEN ATOMIC CHARGES
-----------------------
   0 C :    0.018324
   1 C :   -0.029903
   2 C :    0.020014
   3 C :    0.025261
   4 C :   -0.005054
   5 C :    0.039037
   6 C :    0.026131
   7 C :   -0.129144
   8 P :    0.143217
   9 C :   -0.153827
  10 C :    0.064018
  11 C :    0.018871
  12 C :    0.010490
  13 C :    0.017476
  14 C :    0.019539
  15 C :   -0.013854
  16 C :   -0.006360
  17 C :   -0.158903
  18 C :    0.058391
  19 C :    0.012742
  20 C :    0.015202
  21 C :    0.027999
  22 C :   -0.007162
  23 C :    0.012496
  24 C :   -0.006661
  25 H :    0.003938
  26 H :    0.006965
  27 H :    0.004503
  28 H :   -0.006550
  29 H :    0.006471
  30 H :   -0.013299
  31 H :   -0.012589
  32 H :   -0.007419
  33 H :   -0.015550
  34 H :   -0.003346
  35 H :   -0.003314
  36 H :    0.005116
  37 H :   -0.012026
  38 H :    0.000890
  39 H :   -0.002731
  40 H :    0.014731
  41 H :    0.029083
  42 H :    0.037378
  43 H :    0.013074
  44 H :   -0.007685
  45 H :   -0.004005
  46 H :   -0.013257
  47 H :    0.004926
  48 H :   -0.011720
  49 H :   -0.008724
  50 H :   -0.012561
  51 H :   -0.007380
  52 H :   -0.011976
  53 H :   -0.004544
  54 H :   -0.006166
  55 H :   -0.002447
  56 H :    0.006000
  57 H :    0.013533
  58 H :    0.006737
  59 H :    0.037841
  60 H :    0.010513
  61 H :    0.004021
  62 H :   -0.002751
  63 H :   -0.004287
  64 H :   -0.011031
  65 H :   -0.011302
  66 H :   -0.005147
  67 H :   -0.007438
  68 H :   -0.014322
  69 H :   -0.002446
  70 H :   -0.012456
  71 H :   -0.006683
  72 H :   -0.005370
  73 H :    0.007949
  74 H :    0.013635
  75 H :    0.004879
Sum of atomic charges:   -0.0000000

LOEWDIN ATOMIC CHARGES
----------------------
   0 C :   -0.056121
   1 C :   -0.039589
   2 C :   -0.032948
   3 C :   -0.034834
   4 C :   -0.036756
   5 C :   -0.036061
   6 C :   -0.043429
   7 C :   -0.174073
   8 P :    0.458814
   9 C :   -0.175111
  10 C :   -0.043636
  11 C :   -0.037111
  12 C :   -0.037233
  13 C :   -0.034102
  14 C :   -0.036506
  15 C :   -0.041577
  16 C :   -0.058088
  17 C :   -0.175589
  18 C :   -0.041572
  19 C :   -0.033365
  20 C :   -0.033619
  21 C :   -0.032944
  22 C :   -0.035575
  23 C :   -0.036876
  24 C :   -0.058963
  25 H :    0.019257
  26 H :    0.021671
  27 H :    0.020206
  28 H :    0.017221
  29 H :    0.017819
  30 H :    0.015709
  31 H :    0.017128
  32 H :    0.016463
  33 H :    0.015705
  34 H :    0.014783
  35 H :    0.019644
  36 H :    0.017229
  37 H :    0.018456
  38 H :    0.019250
  39 H :    0.018113
  40 H :    0.014775
  41 H :    0.017485
  42 H :    0.015714
  43 H :    0.016757
  44 H :    0.017790
  45 H :    0.017577
  46 H :    0.017998
  47 H :    0.016457
  48 H :    0.012662
  49 H :    0.023806
  50 H :    0.018488
  51 H :    0.017113
  52 H :    0.018490
  53 H :    0.015467
  54 H :    0.020655
  55 H :    0.016243
  56 H :    0.020328
  57 H :    0.019115
  58 H :    0.022421
  59 H :    0.017586
  60 H :    0.011225
  61 H :    0.017938
  62 H :    0.017821
  63 H :    0.015420
  64 H :    0.018829
  65 H :    0.019039
  66 H :    0.015341
  67 H :    0.017997
  68 H :    0.015829
  69 H :    0.017449
  70 H :    0.015476
  71 H :    0.017684
  72 H :    0.019480
  73 H :    0.022715
  74 H :    0.018983
  75 H :    0.020056

  Mayer bond orders larger than 0.100000
B(  0-C ,  1-C ) :   1.1073 B(  0-C , 25-H ) :   0.9686 B(  0-C , 26-H ) :   0.9656
B(  0-C , 27-H ) :   0.9685 B(  1-C ,  2-C ) :   1.0852 B(  1-C , 28-H ) :   0.9444
B(  1-C , 29-H ) :   0.9429 B(  2-C ,  3-C ) :   1.0936 B(  2-C , 30-H ) :   0.9359
B(  2-C , 31-H ) :   0.9377 B(  3-C ,  4-C ) :   1.0819 B(  3-C , 32-H ) :   0.9285
B(  3-C , 33-H ) :   0.9325 B(  4-C ,  5-C ) :   1.0933 B(  4-C , 34-H ) :   0.9326
B(  4-C , 35-H ) :   0.9313 B(  5-C ,  6-C ) :   1.0873 B(  5-C , 36-H ) :   0.9269
B(  5-C , 37-H ) :   0.9311 B(  6-C ,  7-C ) :   1.0740 B(  6-C , 38-H ) :   0.9298
B(  6-C , 39-H ) :   0.9351 B(  7-C ,  8-P ) :   0.9836 B(  7-C , 40-H ) :   0.9257
B(  7-C , 41-H ) :   0.9343 B(  8-P ,  9-C ) :   0.9756 B(  8-P , 17-C ) :   0.9782
B(  9-C , 10-C ) :   1.0698 B(  9-C , 42-H ) :   0.9294 B(  9-C , 43-H ) :   0.9225
B( 10-C , 11-C ) :   1.0899 B( 10-C , 44-H ) :   0.9268 B( 10-C , 45-H ) :   0.9279
B( 11-C , 12-C ) :   1.0776 B( 11-C , 46-H ) :   0.9337 B( 11-C , 47-H ) :   0.9307
B( 12-C , 13-C ) :   1.0944 B( 12-C , 48-H ) :   0.9376 B( 12-C , 49-H ) :   0.9278
B( 13-C , 14-C ) :   1.0913 B( 13-C , 50-H ) :   0.9300 B( 13-C , 51-H ) :   0.9336
B( 14-C , 15-C ) :   1.0883 B( 14-C , 52-H ) :   0.9300 B( 14-C , 53-H ) :   0.9367
B( 15-C , 16-C ) :   1.1038 B( 15-C , 54-H ) :   0.9376 B( 15-C , 55-H ) :   0.9401
B( 16-C , 56-H ) :   0.9692 B( 16-C , 57-H ) :   0.9674 B( 16-C , 58-H ) :   0.9644
B( 17-C , 18-C ) :   1.0619 B( 17-C , 59-H ) :   0.9352 B( 17-C , 60-H ) :   0.9254
B( 18-C , 19-C ) :   1.0938 B( 18-C , 61-H ) :   0.9327 B( 18-C , 62-H ) :   0.9331
B( 19-C , 20-C ) :   1.0871 B( 19-C , 63-H ) :   0.9332 B( 19-C , 64-H ) :   0.9346
B( 20-C , 21-C ) :   1.0933 B( 20-C , 65-H ) :   0.9343 B( 20-C , 66-H ) :   0.9310
B( 21-C , 22-C ) :   1.0816 B( 21-C , 67-H ) :   0.9336 B( 21-C , 68-H ) :   0.9344
B( 22-C , 23-C ) :   1.0915 B( 22-C , 69-H ) :   0.9365 B( 22-C , 70-H ) :   0.9389
B( 23-C , 24-C ) :   1.1049 B( 23-C , 71-H ) :   0.9408 B( 23-C , 72-H ) :   0.9415
B( 24-C , 73-H ) :   0.9646 B( 24-C , 74-H ) :   0.9695 B( 24-C , 75-H ) :   0.9696

Dispersion correction           -0.135184830
FINAL SINGLE POINT ENERGY     -1285.256039813408

DIPOLE MOMENT
-------------

Method             : SCF
Type of density    : Electron Density
Multiplicity       :   1
Irrep              :   0
Energy             : -1285.1208549831048913 Eh
Relativity type    :
Basis              : AO
                                X                 Y                 Z
Electronic contribution:      0.475637333      -2.607950852       2.250655062
Nuclear contribution   :     -0.267109125       2.486208284      -2.573398584
                        -----------------------------------------
Total Dipole Moment    :      0.208528208      -0.121742568      -0.322743522
                        -----------------------------------------
Magnitude (a.u.)       :      0.403073997
Magnitude (Debye)      :      1.024532680

Rotational constants in cm-1:             0.005647             0.002367             0.001794
Rotational constants in MHz :           169.298149            70.956275            53.770579

                             ****ORCA TERMINATED NORMALLY****
TOTAL RUN TIME: 0 days 0 hours 20 minutes 13 seconds 395 msec
