                         Program Version 6.0.0  -   RELEASE   -
|  1> ! RIJCOSX M062X def2-TZVP D3ZERO NormalSCF
|  2> %pal
|  3> nprocs 6
|  4> end
|  5>
|  6> * xyz 0 1
|  7>   C           0.57365510989854      3.33280978009306     -0.08426067899291
|  8>   C          -0.49545604727340      2.27251277354621      0.19869354836584
|  9>   P          -0.20316689507101      0.76033642633419     -0.81274652393747
| 10>   O          -0.09645379775616      1.01645374832720     -2.30796959343281
| 11>   C          -1.56268412312752     -0.39710129955893     -0.39721114629655
| 12>   C          -2.02387812801745     -0.64269756587131      0.91249652399681
| 13>   C          -3.06838681698726     -1.55494147911056      1.12934165019689
| 14>   C          -3.65720680669981     -2.22276895770948      0.04126691459149
| 15>   C          -3.20469156235295     -1.97364726140412     -1.26554553001318
| 16>   C          -2.16136447801014     -1.06108929601794     -1.48661087477108
| 17>   C           1.33981025660644      0.02127810943196     -0.14398628696769
| 18>   C           2.36025741217941     -0.23411585219183     -1.08064457369887
| 19>   C           3.57895451724262     -0.78795604953024     -0.65681055674102
| 20>   C           3.78232935259811     -1.08571971809543      0.70107410580545
| 21>   C           2.76559463676743     -0.82975721993492      1.63841485218395
| 22>   C           1.54597658961687     -0.27717242259594      1.21818748660197
| 23>   H           1.57734955199318      2.98652384754433      0.23626377516741
| 24>   H           0.62243482137474      3.54544772676500     -1.17047130405842
| 25>   H           0.35067371972129      4.27801349698931      0.44987397659692
| 26>   H          -0.53359564294038      1.99496774902592      1.27369730238945
| 27>   H          -1.50958286963135      2.62742891889023     -0.08327601318024
| 28>   H          -1.57761475386818     -0.12015103029880      1.77270947848840
| 29>   H          -3.42736722092965     -1.74389208928994      2.15270876174340
| 30>   H          -4.47609436391812     -2.93791484898687      0.21424106256813
| 31>   H          -3.66983397526938     -2.49148239259257     -2.11848003412210
| 32>   H          -1.79296849490755     -0.83626912123376     -2.49981953366540
| 33>   H           2.16961511688357      0.01468955487146     -2.13646237804651
| 34>   H           4.37530129851765     -0.98725460700383     -1.39045038384306
| 35>   H           4.73811486039123     -1.51943739290929      1.03326446574774
| 36>   H           2.92463283360907     -1.06275543502405      2.70252132996564
| 37>   H           0.75564789936017     -0.08433809245908      1.95998817735782
| 38> **                         ****END OF INPUT****

CARTESIAN COORDINATES (ANGSTROEM)
---------------------------------
  C      0.573655    3.332810   -0.084261
  C     -0.495456    2.272513    0.198694
  P     -0.203167    0.760336   -0.812747
  O     -0.096454    1.016454   -2.307970
  C     -1.562684   -0.397101   -0.397211
  C     -2.023878   -0.642698    0.912497
  C     -3.068387   -1.554941    1.129342
  C     -3.657207   -2.222769    0.041267
  C     -3.204692   -1.973647   -1.265546
  C     -2.161364   -1.061089   -1.486611
  C      1.339810    0.021278   -0.143986
  C      2.360257   -0.234116   -1.080645
  C      3.578955   -0.787956   -0.656811
  C      3.782329   -1.085720    0.701074
  C      2.765595   -0.829757    1.638415
  C      1.545977   -0.277172    1.218187
  H      1.577350    2.986524    0.236264
  H      0.622435    3.545448   -1.170471
  H      0.350674    4.278013    0.449874
  H     -0.533596    1.994968    1.273697
  H     -1.509583    2.627429   -0.083276
  H     -1.577615   -0.120151    1.772709
  H     -3.427367   -1.743892    2.152709
  H     -4.476094   -2.937915    0.214241
  H     -3.669834   -2.491482   -2.118480
  H     -1.792968   -0.836269   -2.499820
  H      2.169615    0.014690   -2.136462
  H      4.375301   -0.987255   -1.390450
  H      4.738115   -1.519437    1.033264
  H      2.924633   -1.062755    2.702521
  H      0.755648   -0.084338    1.959988

 Total Charge           Charge          ....    0
 Multiplicity           Mult            ....    1
 Number of Electrons    NEL             ....  122
 Basis Dimension        Dim             ....  592

ORBITAL ENERGIES
----------------

  NO   OCC          E(Eh)            E(eV)
   0   2.0000     -78.092447     -2125.0035
   1   2.0000     -19.566647      -532.4355
   2   2.0000     -10.565366      -287.4982
   3   2.0000     -10.563924      -287.4590
   4   2.0000     -10.560844      -287.3752
   5   2.0000     -10.559833      -287.3477
   6   2.0000     -10.559685      -287.3436
   7   2.0000     -10.558779      -287.3190
   8   2.0000     -10.558717      -287.3173
   9   2.0000     -10.557320      -287.2793
  10   2.0000     -10.557222      -287.2766
  11   2.0000     -10.556294      -287.2514
  12   2.0000     -10.556262      -287.2505
  13   2.0000     -10.555136      -287.2199
  14   2.0000     -10.553741      -287.1819
  15   2.0000     -10.538607      -286.7701
  16   2.0000      -6.899047      -187.7326
  17   2.0000      -5.016215      -136.4981
  18   2.0000      -5.015922      -136.4902
  19   2.0000      -5.014433      -136.4497
  20   2.0000      -1.061274       -28.8787
  21   2.0000      -0.965113       -26.2621
  22   2.0000      -0.962195       -26.1826
  23   2.0000      -0.878381       -23.9020
  24   2.0000      -0.851648       -23.1745
  25   2.0000      -0.849425       -23.1140
  26   2.0000      -0.848029       -23.0760
  27   2.0000      -0.845399       -23.0045
  28   2.0000      -0.741816       -20.1858
  29   2.0000      -0.701723       -19.0949
  30   2.0000      -0.693167       -18.8620
  31   2.0000      -0.692049       -18.8316
  32   2.0000      -0.684642       -18.6301
  33   2.0000      -0.630146       -17.1471
  34   2.0000      -0.598789       -16.2939
  35   2.0000      -0.581725       -15.8295
  36   2.0000      -0.534969       -14.5572
  37   2.0000      -0.529364       -14.4047
  38   2.0000      -0.526791       -14.3347
  39   2.0000      -0.523223       -14.2376
  40   2.0000      -0.521961       -14.2033
  41   2.0000      -0.507679       -13.8147
  42   2.0000      -0.495501       -13.4833
  43   2.0000      -0.492424       -13.3995
  44   2.0000      -0.483573       -13.1587
  45   2.0000      -0.458360       -12.4726
  46   2.0000      -0.453302       -12.3350
  47   2.0000      -0.443410       -12.0658
  48   2.0000      -0.440979       -11.9996
  49   2.0000      -0.423810       -11.5324
  50   2.0000      -0.419814       -11.4237
  51   2.0000      -0.409164       -11.1339
  52   2.0000      -0.406606       -11.0643
  53   2.0000      -0.403677       -10.9846
  54   2.0000      -0.397747       -10.8232
  55   2.0000      -0.336908        -9.1677
  56   2.0000      -0.334460        -9.1011
  57   2.0000      -0.320543        -8.7224
  58   2.0000      -0.318198        -8.6586
  59   2.0000      -0.315160        -8.5759
  60   2.0000      -0.310701        -8.4546
  61   0.0000      -0.015671        -0.4264
  62   0.0000       0.003125         0.0850
  63   0.0000       0.008204         0.2232
  64   0.0000       0.014120         0.3842
  65   0.0000       0.053241         1.4488

MULLIKEN ATOMIC CHARGES
-----------------------
   0 C :   -0.432475
   1 C :   -0.349116
   2 P :    0.625009
   3 O :   -0.609959
   4 C :   -0.022448
   5 C :   -0.178604
   6 C :   -0.168474
   7 C :   -0.137749
   8 C :   -0.133803
   9 C :   -0.154892
  10 C :   -0.104962
  11 C :   -0.125859
  12 C :   -0.141525
  13 C :   -0.134511
  14 C :   -0.169544
  15 C :   -0.149983
  16 H :    0.155837
  17 H :    0.176671
  18 H :    0.146476
  19 H :    0.154336
  20 H :    0.172937
  21 H :    0.157638
  22 H :    0.146356
  23 H :    0.148598
  24 H :    0.149847
  25 H :    0.194391
  26 H :    0.196872
  27 H :    0.150041
  28 H :    0.148472
  29 H :    0.145946
  30 H :    0.144475
Sum of atomic charges:   -0.0000000

LOEWDIN ATOMIC CHARGES
----------------------
   0 C :   -0.333278
   1 C :   -0.387983
   2 P :    0.649661
   3 O :   -0.316266
   4 C :   -0.231527
   5 C :   -0.138108
   6 C :   -0.141222
   7 C :   -0.132362
   8 C :   -0.135411
   9 C :   -0.115026
  10 C :   -0.232163
  11 C :   -0.117390
  12 C :   -0.136087
  13 C :   -0.133100
  14 C :   -0.141271
  15 C :   -0.135759
  16 H :    0.127601
  17 H :    0.135125
  18 H :    0.124155
  19 H :    0.136303
  20 H :    0.147558
  21 H :    0.143872
  22 H :    0.148480
  23 H :    0.148718
  24 H :    0.149678
  25 H :    0.162105
  26 H :    0.162390
  27 H :    0.149472
  28 H :    0.148556
  29 H :    0.148326
  30 H :    0.144951

  Mayer bond orders larger than 0.100000
B(  0-C ,  1-C ) :   0.9342 B(  0-C , 16-H ) :   0.9630 B(  0-C , 17-H ) :   0.9661
B(  0-C , 18-H ) :   0.9694 B(  1-C ,  2-P ) :   0.9335 B(  1-C , 19-H ) :   0.9373
B(  1-C , 20-H ) :   0.9391 B(  2-P ,  3-O ) :   1.9282 B(  2-P ,  4-C ) :   0.8898
B(  2-P , 10-C ) :   0.9154 B(  4-C ,  5-C ) :   1.3544 B(  4-C ,  9-C ) :   1.4185
B(  5-C ,  6-C ) :   1.5167 B(  5-C , 21-H ) :   0.9060 B(  6-C ,  7-C ) :   1.4450
B(  6-C , 22-H ) :   0.9441 B(  7-C ,  8-C ) :   1.4388 B(  7-C , 23-H ) :   0.9455
B(  8-C ,  9-C ) :   1.4311 B(  8-C , 24-H ) :   0.9475 B(  9-C , 25-H ) :   0.9070
B( 10-C , 11-C ) :   1.4007 B( 10-C , 15-C ) :   1.3414 B( 11-C , 12-C ) :   1.4274
B( 11-C , 26-H ) :   0.9087 B( 12-C , 13-C ) :   1.4405 B( 12-C , 27-H ) :   0.9471
B( 13-C , 14-C ) :   1.4367 B( 13-C , 28-H ) :   0.9460 B( 14-C , 15-C ) :   1.5137
B( 14-C , 29-H ) :   0.9450 B( 15-C , 30-H ) :   0.9142

Dispersion correction           -0.001750833
FINAL SINGLE POINT ENERGY      -959.094950193966

DIPOLE MOMENT
-------------

Method             : SCF
Type of density    : Electron Density
Multiplicity       :   1
Irrep              :   0
Energy             :  -959.0931993604707486 Eh
Relativity type    :
Basis              : AO
                                X                 Y                 Z
Electronic contribution:     -1.314910851      -4.435011088      -4.322182138
Nuclear contribution   :      1.249159943       4.024175713       5.861706056
                        -----------------------------------------
Total Dipole Moment    :     -0.065750908      -0.410835374       1.539523918
                        -----------------------------------------
Magnitude (a.u.)       :      1.594754771
Magnitude (Debye)      :      4.053544487

Rotational constants in cm-1:             0.023270             0.011347             0.009852
Rotational constants in MHz :           697.626424           340.182348           295.368576

                             ****ORCA TERMINATED NORMALLY****
TOTAL RUN TIME: 0 days 0 hours 1 minutes 25 seconds 454 msec
