                         Program Version 6.0.0  -   RELEASE   -
|  1> ! RIJCOSX M062X def2-TZVP D3ZERO NormalSCF
|  2> %pal
|  3> nprocs 6
|  4> end
|  5>
|  6> * xyz 0 1
|  7>   C          -5.15245888664491      4.95746669307349      0.72580375371369
|  8>   C          -3.62840927156090      4.81380623814127      0.78084768613128
|  9>   C          -3.03657366133689      4.20624796751087     -0.49816304393316
| 10>   C          -1.50496553517919      4.09081746799595     -0.51959555515561
| 11>   C          -0.93294939285138      3.16629702833367      0.56309851529209
| 12>   C           0.57663656147699      2.90011141902716      0.45981122260583
| 13>   C           1.03742737621802      2.25738420095635     -0.86334184599448
| 14>   C           0.22908754895397      1.02054551316933     -1.28687774446156
| 15>   P           0.04889399546124     -0.28283804094779      0.05510607284872
| 16>   C          -1.00612180212480     -1.48829455792712     -0.93023095513690
| 17>   C          -1.68487828521562     -2.59735384171118     -0.10806868422753
| 18>   C          -2.40366090919471     -2.11921737777589      1.16649251971958
| 19>   C          -3.45566991581243     -1.00782693654497      1.00558018050448
| 20>   C          -4.69481701147201     -1.36264508384681      0.15779102898985
| 21>   C          -4.57454614634938     -1.14323613832729     -1.36268676982486
| 22>   C          -4.35870328411348      0.31631029268621     -1.80055823241699
| 23>   C          -5.50123057256997      1.26467557187992     -1.42092588942633
| 24>   C           1.73999713130973     -1.07873517836787     -0.07962801025233
| 25>   C           1.94334916854840     -2.25931317179837      0.88008795158893
| 26>   C           3.34618436677548     -2.88604151035280      0.81659892142184
| 27>   C           4.47681363830220     -1.95770710981400      1.28252912762628
| 28>   C           5.86741548813468     -2.61150340242701      1.32125838623794
| 29>   C           6.41422085157914     -3.02466747436961     -0.05295127056854
| 30>   C           7.81462636045117     -3.65984735413035     -0.01964242858088
| 31>   C           8.93235644716253     -2.71905973347429      0.44590988591387
| 32>   H          -5.46652534421741      5.60761803318625     -0.11819035000735
| 33>   H          -5.55986913823225      5.39921155940108      1.65805986399194
| 34>   H          -5.64295145487652      3.97212642162362      0.57984816249273
| 35>   H          -3.16182131904277      5.80881134830515      0.96187977712524
| 36>   H          -3.34996156518925      4.18746280192266      1.65609843353441
| 37>   H          -3.47464837584010      3.19433341853824     -0.65224043659649
| 38>   H          -3.36951924525530      4.81231843544242     -1.37050225321423
| 39>   H          -1.19878258429218      3.72173944859688     -1.52271186615118
| 40>   H          -1.04932636803679      5.10312471431221     -0.42204498664887
| 41>   H          -1.47280125368049      2.19212463687599      0.53763808149396
| 42>   H          -1.14642055773055      3.58861574552611      1.56810202433041
| 43>   H           0.86489447747050      2.23346651183737      1.30156279357548
| 44>   H           1.13746041359542      3.84904173656048      0.61058351809407
| 45>   H           0.99109245031404      3.00505711631545     -1.68569255837406
| 46>   H           2.11304706667714      1.98965479356002     -0.77426248942025
| 47>   H           0.66314887895479      0.56443319439535     -2.20424927047367
| 48>   H          -0.80975786772334      1.31684502682276     -1.54990481622583
| 49>   H          -1.77909594840605     -0.85584124743507     -1.41534020669701
| 50>   H          -0.40404392993492     -1.92449256623319     -1.75779369619713
| 51>   H          -0.92768251632892     -3.35593402200635      0.18651912936145
| 52>   H          -2.39761833612794     -3.14001012563861     -0.76805615619771
| 53>   H          -2.88369979574272     -2.99980175455036      1.64886099588054
| 54>   H          -1.63493179268927     -1.75631619386701      1.88283192647587
| 55>   H          -2.97007413036034     -0.08613228988245      0.61348684737024
| 56>   H          -3.79515730448452     -0.73165889153412      2.02659461377685
| 57>   H          -4.97014744897870     -2.42418111984514      0.34762315836336
| 58>   H          -5.56090905833685     -0.77083472114232      0.52546540904346
| 59>   H          -5.50413948804769     -1.51961149069264     -1.84576138455549
| 60>   H          -3.75434388244339     -1.76889391544788     -1.77323124608621
| 61>   H          -4.21672628097292      0.33459050626287     -2.90302242191716
| 62>   H          -3.40418508412430      0.70365353853348     -1.37661947574120
| 63>   H          -6.47600160955671      0.89105996523789     -1.80059929498917
| 64>   H          -5.59627882329292      1.37946670609234     -0.32158880034850
| 65>   H          -5.34471875115837      2.27788566607396     -1.84223062639697
| 66>   H           2.47283888542956     -0.27363675153701      0.14484262425114
| 67>   H           1.92584315693565     -1.39277017047667     -1.13284509430951
| 68>   H           1.19138015016461     -3.04669770821861      0.65699534770275
| 69>   H           1.72998883346367     -1.92485992688559      1.92025069766694
| 70>   H           3.53954631055959     -3.22753286829945     -0.22466659906665
| 71>   H           3.35822959349012     -3.80598517342846      1.44333003685277
| 72>   H           4.22625138200249     -1.57644583071693      2.29775630652916
| 73>   H           4.52180761473523     -1.05918528742849      0.62693988938527
| 74>   H           6.57645429846052     -1.90398847391297      1.80258705267374
| 75>   H           5.83632862407336     -3.50645860071163      1.98495025026417
| 76>   H           5.71135914984048     -3.74199626575557     -0.52908298352199
| 77>   H           6.43113957985633     -2.13155711137045     -0.72009777240900
| 78>   H           7.78976357665766     -4.56016916595810      0.63539068838072
| 79>   H           8.05820255189306     -4.03737026903448     -1.03676672620085
| 80>   H           9.92363470664304     -3.21455886720643      0.40005492755293
| 81>   H           8.78415887869362     -2.38053982711466      1.49200425993975
| 82>   H           8.98354741524472     -1.81055717005084     -0.19141212697804
| 83> **                         ****END OF INPUT****

CARTESIAN COORDINATES (ANGSTROEM)
---------------------------------
  C     -5.152459    4.957467    0.725804
  C     -3.628409    4.813806    0.780848
  C     -3.036574    4.206248   -0.498163
  C     -1.504966    4.090817   -0.519596
  C     -0.932949    3.166297    0.563099
  C      0.576637    2.900111    0.459811
  C      1.037427    2.257384   -0.863342
  C      0.229088    1.020546   -1.286878
  P      0.048894   -0.282838    0.055106
  C     -1.006122   -1.488295   -0.930231
  C     -1.684878   -2.597354   -0.108069
  C     -2.403661   -2.119217    1.166493
  C     -3.455670   -1.007827    1.005580
  C     -4.694817   -1.362645    0.157791
  C     -4.574546   -1.143236   -1.362687
  C     -4.358703    0.316310   -1.800558
  C     -5.501231    1.264676   -1.420926
  C      1.739997   -1.078735   -0.079628
  C      1.943349   -2.259313    0.880088
  C      3.346184   -2.886042    0.816599
  C      4.476814   -1.957707    1.282529
  C      5.867415   -2.611503    1.321258
  C      6.414221   -3.024667   -0.052951
  C      7.814626   -3.659847   -0.019642
  C      8.932356   -2.719060    0.445910
  H     -5.466525    5.607618   -0.118190
  H     -5.559869    5.399212    1.658060
  H     -5.642951    3.972126    0.579848
  H     -3.161821    5.808811    0.961880
  H     -3.349962    4.187463    1.656098
  H     -3.474648    3.194333   -0.652240
  H     -3.369519    4.812318   -1.370502
  H     -1.198783    3.721739   -1.522712
  H     -1.049326    5.103125   -0.422045
  H     -1.472801    2.192125    0.537638
  H     -1.146421    3.588616    1.568102
  H      0.864894    2.233467    1.301563
  H      1.137460    3.849042    0.610584
  H      0.991092    3.005057   -1.685693
  H      2.113047    1.989655   -0.774262
  H      0.663149    0.564433   -2.204249
  H     -0.809758    1.316845   -1.549905
  H     -1.779096   -0.855841   -1.415340
  H     -0.404044   -1.924493   -1.757794
  H     -0.927683   -3.355934    0.186519
  H     -2.397618   -3.140010   -0.768056
  H     -2.883700   -2.999802    1.648861
  H     -1.634932   -1.756316    1.882832
  H     -2.970074   -0.086132    0.613487
  H     -3.795157   -0.731659    2.026595
  H     -4.970147   -2.424181    0.347623
  H     -5.560909   -0.770835    0.525465
  H     -5.504139   -1.519611   -1.845761
  H     -3.754344   -1.768894   -1.773231
  H     -4.216726    0.334591   -2.903022
  H     -3.404185    0.703654   -1.376619
  H     -6.476002    0.891060   -1.800599
  H     -5.596279    1.379467   -0.321589
  H     -5.344719    2.277886   -1.842231
  H      2.472839   -0.273637    0.144843
  H      1.925843   -1.392770   -1.132845
  H      1.191380   -3.046698    0.656995
  H      1.729989   -1.924860    1.920251
  H      3.539546   -3.227533   -0.224667
  H      3.358230   -3.805985    1.443330
  H      4.226251   -1.576446    2.297756
  H      4.521808   -1.059185    0.626940
  H      6.576454   -1.903988    1.802587
  H      5.836329   -3.506459    1.984950
  H      5.711359   -3.741996   -0.529083
  H      6.431140   -2.131557   -0.720098
  H      7.789764   -4.560169    0.635391
  H      8.058203   -4.037370   -1.036767
  H      9.923635   -3.214559    0.400055
  H      8.784159   -2.380540    1.492004
  H      8.983547   -1.810557   -0.191412

 Total Charge           Charge          ....    0
 Multiplicity           Mult            ....    1
 Number of Electrons    NEL             ....  210
 Basis Dimension        Dim             .... 1087

ORBITAL ENERGIES
----------------

  NO   OCC          E(Eh)            E(eV)
   0   2.0000     -78.008825     -2122.7280
   1   2.0000     -10.536127      -286.7026
   2   2.0000     -10.535276      -286.6794
   3   2.0000     -10.534894      -286.6690
   4   2.0000     -10.534563      -286.6600
   5   2.0000     -10.534131      -286.6483
   6   2.0000     -10.533715      -286.6370
   7   2.0000     -10.533425      -286.6291
   8   2.0000     -10.532655      -286.6081
   9   2.0000     -10.531908      -286.5878
  10   2.0000     -10.531215      -286.5689
  11   2.0000     -10.530633      -286.5531
  12   2.0000     -10.530148      -286.5399
  13   2.0000     -10.529954      -286.5346
  14   2.0000     -10.528964      -286.5077
  15   2.0000     -10.528504      -286.4952
  16   2.0000     -10.528151      -286.4855
  17   2.0000     -10.527906      -286.4789
  18   2.0000     -10.527732      -286.4741
  19   2.0000     -10.526805      -286.4489
  20   2.0000     -10.526451      -286.4393
  21   2.0000     -10.526224      -286.4331
  22   2.0000     -10.525814      -286.4220
  23   2.0000     -10.525007      -286.4000
  24   2.0000     -10.523890      -286.3696
  25   2.0000      -6.825202      -185.7232
  26   2.0000      -4.939650      -134.4147
  27   2.0000      -4.939432      -134.4088
  28   2.0000      -4.939342      -134.4063
  29   2.0000      -0.911848       -24.8126
  30   2.0000      -0.908238       -24.7144
  31   2.0000      -0.906730       -24.6734
  32   2.0000      -0.887836       -24.1592
  33   2.0000      -0.879682       -23.9374
  34   2.0000      -0.876992       -23.8642
  35   2.0000      -0.847768       -23.0689
  36   2.0000      -0.834230       -22.7006
  37   2.0000      -0.831566       -22.6281
  38   2.0000      -0.799901       -21.7664
  39   2.0000      -0.784346       -21.3431
  40   2.0000      -0.780643       -21.2424
  41   2.0000      -0.751664       -20.4538
  42   2.0000      -0.736049       -20.0289
  43   2.0000      -0.728016       -19.8103
  44   2.0000      -0.705014       -19.1844
  45   2.0000      -0.691019       -18.8036
  46   2.0000      -0.687341       -18.7035
  47   2.0000      -0.659740       -17.9524
  48   2.0000      -0.651522       -17.7288
  49   2.0000      -0.644815       -17.5463
  50   2.0000      -0.630677       -17.1616
  51   2.0000      -0.623621       -16.9696
  52   2.0000      -0.611460       -16.6387
  53   2.0000      -0.586958       -15.9719
  54   2.0000      -0.547360       -14.8944
  55   2.0000      -0.542006       -14.7487
  56   2.0000      -0.535578       -14.5738
  57   2.0000      -0.531223       -14.4553
  58   2.0000      -0.529303       -14.4031
  59   2.0000      -0.526036       -14.3142
  60   2.0000      -0.520598       -14.1662
  61   2.0000      -0.516674       -14.0594
  62   2.0000      -0.510121       -13.8811
  63   2.0000      -0.501938       -13.6584
  64   2.0000      -0.495719       -13.4892
  65   2.0000      -0.487172       -13.2566
  66   2.0000      -0.484787       -13.1917
  67   2.0000      -0.477245       -12.9865
  68   2.0000      -0.474888       -12.9224
  69   2.0000      -0.470314       -12.7979
  70   2.0000      -0.468763       -12.7557
  71   2.0000      -0.466738       -12.7006
  72   2.0000      -0.457362       -12.4455
  73   2.0000      -0.453932       -12.3521
  74   2.0000      -0.451175       -12.2771
  75   2.0000      -0.443053       -12.0561
  76   2.0000      -0.439073       -11.9478
  77   2.0000      -0.434784       -11.8311
  78   2.0000      -0.431348       -11.7376
  79   2.0000      -0.423900       -11.5349
  80   2.0000      -0.422181       -11.4881
  81   2.0000      -0.419619       -11.4184
  82   2.0000      -0.415717       -11.3122
  83   2.0000      -0.406881       -11.0718
  84   2.0000      -0.401853       -10.9350
  85   2.0000      -0.400528       -10.8989
  86   2.0000      -0.397656       -10.8208
  87   2.0000      -0.394250       -10.7281
  88   2.0000      -0.388889       -10.5822
  89   2.0000      -0.386277       -10.5111
  90   2.0000      -0.382630       -10.4119
  91   2.0000      -0.381563       -10.3829
  92   2.0000      -0.378032       -10.2868
  93   2.0000      -0.373934       -10.1753
  94   2.0000      -0.372187       -10.1277
  95   2.0000      -0.370482       -10.0813
  96   2.0000      -0.365323        -9.9409
  97   2.0000      -0.362200        -9.8560
  98   2.0000      -0.362026        -9.8512
  99   2.0000      -0.359900        -9.7934
 100   2.0000      -0.358519        -9.7558
 101   2.0000      -0.356644        -9.7048
 102   2.0000      -0.340511        -9.2658
 103   2.0000      -0.338047        -9.1987
 104   2.0000      -0.266469        -7.2510
 105   0.0000       0.045811         1.2466
 106   0.0000       0.053799         1.4639
 107   0.0000       0.057958         1.5771
 108   0.0000       0.066257         1.8029
 109   0.0000       0.069267         1.8849

MULLIKEN ATOMIC CHARGES
-----------------------
   0 C :   -0.431948
   1 C :   -0.249283
   2 C :   -0.238319
   3 C :   -0.301993
   4 C :   -0.308102
   5 C :   -0.263632
   6 C :   -0.376778
   7 C :   -0.377086
   8 P :    0.150202
   9 C :   -0.380968
  10 C :   -0.352574
  11 C :   -0.272622
  12 C :   -0.234998
  13 C :   -0.321049
  14 C :   -0.319733
  15 C :   -0.169574
  16 C :   -0.506054
  17 C :   -0.433233
  18 C :   -0.271888
  19 C :   -0.289194
  20 C :   -0.288453
  21 C :   -0.293290
  22 C :   -0.282511
  23 C :   -0.245148
  24 C :   -0.443111
  25 H :    0.137684
  26 H :    0.142616
  27 H :    0.135426
  28 H :    0.132941
  29 H :    0.138259
  30 H :    0.098283
  31 H :    0.146694
  32 H :    0.153322
  33 H :    0.148824
  34 H :    0.145191
  35 H :    0.156481
  36 H :    0.160757
  37 H :    0.147888
  38 H :    0.168277
  39 H :    0.160931
  40 H :    0.168374
  41 H :    0.178195
  42 H :    0.151685
  43 H :    0.171120
  44 H :    0.159228
  45 H :    0.163010
  46 H :    0.148946
  47 H :    0.160461
  48 H :    0.114147
  49 H :    0.145283
  50 H :    0.151308
  51 H :    0.163546
  52 H :    0.150742
  53 H :    0.154467
  54 H :    0.148587
  55 H :    0.052075
  56 H :    0.151780
  57 H :    0.157452
  58 H :    0.162182
  59 H :    0.167544
  60 H :    0.160470
  61 H :    0.135077
  62 H :    0.162279
  63 H :    0.148554
  64 H :    0.146183
  65 H :    0.147649
  66 H :    0.144419
  67 H :    0.143850
  68 H :    0.145904
  69 H :    0.139343
  70 H :    0.143027
  71 H :    0.134263
  72 H :    0.135834
  73 H :    0.142998
  74 H :    0.140835
  75 H :    0.136949
Sum of atomic charges:   -0.0000000

LOEWDIN ATOMIC CHARGES
----------------------
   0 C :   -0.326110
   1 C :   -0.303156
   2 C :   -0.280981
   3 C :   -0.277576
   4 C :   -0.281766
   5 C :   -0.285066
   6 C :   -0.304228
   7 C :   -0.415538
   8 P :    0.563301
   9 C :   -0.413961
  10 C :   -0.306098
  11 C :   -0.288256
  12 C :   -0.274098
  13 C :   -0.273883
  14 C :   -0.283543
  15 C :   -0.310955
  16 C :   -0.333054
  17 C :   -0.421078
  18 C :   -0.304547
  19 C :   -0.278445
  20 C :   -0.278284
  21 C :   -0.277815
  22 C :   -0.281193
  23 C :   -0.305455
  24 C :   -0.327643
  25 H :    0.121608
  26 H :    0.121369
  27 H :    0.121119
  28 H :    0.137238
  29 H :    0.136975
  30 H :    0.140485
  31 H :    0.139612
  32 H :    0.139718
  33 H :    0.139544
  34 H :    0.135847
  35 H :    0.140572
  36 H :    0.139651
  37 H :    0.138947
  38 H :    0.138370
  39 H :    0.137466
  40 H :    0.130725
  41 H :    0.133140
  42 H :    0.136176
  43 H :    0.131581
  44 H :    0.135521
  45 H :    0.136912
  46 H :    0.138961
  47 H :    0.138771
  48 H :    0.133326
  49 H :    0.142833
  50 H :    0.141345
  51 H :    0.139472
  52 H :    0.140608
  53 H :    0.137130
  54 H :    0.139655
  55 H :    0.124023
  56 H :    0.124519
  57 H :    0.120364
  58 H :    0.121510
  59 H :    0.134550
  60 H :    0.129201
  61 H :    0.137847
  62 H :    0.140830
  63 H :    0.138006
  64 H :    0.140917
  65 H :    0.141146
  66 H :    0.137911
  67 H :    0.139080
  68 H :    0.139532
  69 H :    0.138286
  70 H :    0.139069
  71 H :    0.137136
  72 H :    0.137071
  73 H :    0.122036
  74 H :    0.119539
  75 H :    0.122181

  Mayer bond orders larger than 0.100000
B(  0-C ,  1-C ) :   0.9468 B(  0-C , 25-H ) :   0.9767 B(  0-C , 26-H ) :   0.9808
B(  0-C , 27-H ) :   0.9736 B(  1-C ,  2-C ) :   0.9230 B(  1-C , 28-H ) :   0.9716
B(  1-C , 29-H ) :   0.9678 B(  2-C ,  3-C ) :   0.9472 B(  2-C , 30-H ) :   0.9731
B(  2-C , 31-H ) :   0.9846 B(  3-C ,  4-C ) :   0.8841 B(  3-C , 32-H ) :   0.9813
B(  3-C , 33-H ) :   0.9736 B(  4-C ,  5-C ) :   0.9274 B(  4-C , 34-H ) :   0.9648
B(  4-C , 35-H ) :   0.9876 B(  5-C ,  6-C ) :   0.8864 B(  5-C , 36-H ) :   0.9829
B(  5-C , 37-H ) :   0.9814 B(  6-C ,  7-C ) :   0.8977 B(  6-C , 38-H ) :   0.9849
B(  6-C , 39-H ) :   0.9868 B(  7-C ,  8-P ) :   0.9611 B(  7-C , 40-H ) :   0.9647
B(  7-C , 41-H ) :   0.9509 B(  8-P ,  9-C ) :   0.9509 B(  8-P , 17-C ) :   0.9850
B(  9-C , 10-C ) :   0.8989 B(  9-C , 42-H ) :   0.9590 B(  9-C , 43-H ) :   0.9634
B( 10-C , 11-C ) :   0.8863 B( 10-C , 44-H ) :   0.9829 B( 10-C , 45-H ) :   0.9839
B( 11-C , 12-C ) :   0.9302 B( 11-C , 46-H ) :   0.9846 B( 11-C , 47-H ) :   0.9747
B( 12-C , 13-C ) :   0.8931 B( 12-C , 48-H ) :   0.9647 B( 12-C , 49-H ) :   0.9883
B( 13-C , 14-C ) :   0.8872 B( 13-C , 50-H ) :   0.9790 B( 13-C , 51-H ) :   0.9928
B( 14-C , 15-C ) :   0.9246 B( 14-C , 52-H ) :   0.9833 B( 14-C , 53-H ) :   0.9803
B( 15-C , 16-C ) :   0.9207 B( 15-C , 54-H ) :   0.9830 B( 15-C , 55-H ) :   0.9579
B( 16-C , 56-H ) :   0.9724 B( 16-C , 57-H ) :   0.9749 B( 16-C , 58-H ) :   0.9776
B( 17-C , 18-C ) :   0.8784 B( 17-C , 59-H ) :   0.9635 B( 17-C , 60-H ) :   0.9573
B( 18-C , 19-C ) :   0.9474 B( 18-C , 61-H ) :   0.9834 B( 18-C , 62-H ) :   0.9807
B( 19-C , 20-C ) :   0.8910 B( 19-C , 63-H ) :   0.9779 B( 19-C , 64-H ) :   0.9792
B( 20-C , 21-C ) :   0.9543 B( 20-C , 65-H ) :   0.9809 B( 20-C , 66-H ) :   0.9818
B( 21-C , 22-C ) :   0.8913 B( 21-C , 67-H ) :   0.9842 B( 21-C , 68-H ) :   0.9763
B( 22-C , 23-C ) :   0.9423 B( 22-C , 69-H ) :   0.9779 B( 22-C , 70-H ) :   0.9767
B( 23-C , 24-C ) :   0.9307 B( 23-C , 71-H ) :   0.9783 B( 23-C , 72-H ) :   0.9843
B( 24-C , 73-H ) :   0.9771 B( 24-C , 74-H ) :   0.9748 B( 24-C , 75-H ) :   0.9696

Dispersion correction           -0.006171548
FINAL SINGLE POINT ENERGY     -1286.493433459426

DIPOLE MOMENT
-------------

Method             : SCF
Type of density    : Electron Density
Multiplicity       :   1
Irrep              :   0
Energy             : -1286.4872619112945813 Eh
Relativity type    :
Basis              : AO
                                X                 Y                 Z
Electronic contribution:      1.487308685      -3.913049035       1.322140170
Nuclear contribution   :     -1.308558491       3.741387787      -1.621883220
                        -----------------------------------------
Total Dipole Moment    :      0.178750194      -0.171661248      -0.299743050
                        -----------------------------------------
Magnitude (a.u.)       :      0.388928158
Magnitude (Debye)      :      0.988576814

Rotational constants in cm-1:             0.009176             0.002237             0.001921
Rotational constants in MHz :           275.087475            67.070014            57.591940

                             ****ORCA TERMINATED NORMALLY****
TOTAL RUN TIME: 0 days 0 hours 3 minutes 56 seconds 416 msec
