                         Program Version 6.0.0  -   RELEASE   -
|  1> ! RI BP86 def2-SVP D3BJ TIGHTSCF Opt
|  2> %pal
|  3> nprocs 6
|  4> end
|  5>
|  6> * xyz 0 1
|  7> C      5.233832   -0.226336    0.540841
|  8> C      4.104173   -0.733180   -0.341334
|  9> C      2.739240   -0.455845    0.284113
| 10> C      1.604518   -0.962248   -0.599794
| 11> P     -0.041190   -0.677747    0.115760
| 12> O     -0.152561   -1.433122    1.417442
| 13> C     -1.132584   -1.409135   -1.131270
| 14> C     -2.624075   -1.141050   -0.956150
| 15> C     -3.198679   -1.761956    0.315434
| 16> C     -4.707528   -1.582558    0.386769
| 17> C     -0.333558    1.067038    0.200735
| 18> C     -0.678257    1.651592    1.426327
| 19> C     -0.915494    3.023007    1.519299
| 20> C     -0.810422    3.825612    0.385638
| 21> C     -0.468653    3.257333   -0.839926
| 22> C     -0.231437    1.884827   -0.932462
| 23> H      5.216138   -0.714949    1.520274
| 24> H      5.156728    0.854787    0.694449
| 25> H      6.201766   -0.435005    0.074518
| 26> H      4.169481   -0.249108   -1.322711
| 27> H      4.228737   -1.810392   -0.501787
| 28> H      2.673886   -0.935381    1.267807
| 29> H      2.618840    0.620492    0.452224
| 30> H      1.714345   -2.040820   -0.760873
| 31> H      1.650837   -0.483408   -1.583955
| 32> H     -0.948659   -2.489453   -1.152987
| 33> H     -0.826353   -1.021487   -2.109832
| 34> H     -2.806995   -0.060767   -0.948383
| 35> H     -3.152109   -1.547362   -1.827459
| 36> H     -2.961320   -2.831273    0.351517
| 37> H     -2.751619   -1.295894    1.199210
| 38> H     -4.976741   -0.521469    0.381071
| 39> H     -5.201277   -2.067525   -0.461361
| 40> H     -5.098834   -2.027556    1.306985
| 41> H     -0.761851    1.028284    2.315961
| 42> H     -1.181977    3.463169    2.476853
| 43> H     -0.995219    4.894300    0.458087
| 44> H     -0.387517    3.885166   -1.723743
| 45> H      0.032391    1.459420   -1.897289
| 46> **                         ****END OF INPUT****
 Total Charge           Charge          ....    0
 Multiplicity           Mult            ....    1
 Number of Electrons    NEL             ....  130
Dispersion correction           -0.073018817
FINAL SINGLE POINT ENERGY      -963.484962507521
Dispersion correction             ... done (  0.1 sec)
Dispersion correction           -0.072580234
FINAL SINGLE POINT ENERGY      -963.494949601558
Dispersion correction             ... done (  0.1 sec)
Dispersion correction           -0.072572628
FINAL SINGLE POINT ENERGY      -963.497274116614
Dispersion correction             ... done (  0.1 sec)
FINAL SINGLE POINT ENERGY      -963.497851826106
FINAL SINGLE POINT ENERGY      -963.497965934192
FINAL SINGLE POINT ENERGY      -963.498006274402
FINAL SINGLE POINT ENERGY      -963.498026828539
FINAL SINGLE POINT ENERGY      -963.498035934367
Dispersion correction             ... done (  0.1 sec)
Dispersion correction           -0.072465818
FINAL SINGLE POINT ENERGY      -963.498040493556
Dispersion correction             ... done (  0.1 sec)
Dispersion correction           -0.072461333
FINAL SINGLE POINT ENERGY      -963.498042812540
Dispersion correction             ... done (  0.1 sec)
                    ***********************HURRAY********************

CARTESIAN COORDINATES (ANGSTROEM)
---------------------------------
  C      5.220518   -0.216068    0.749397
  C      4.152938   -0.718461   -0.227229
  C      2.723000   -0.448274    0.257291
  C      1.643823   -0.943474   -0.713546
  P     -0.037258   -0.750633    0.015395
  O     -0.172177   -1.375195    1.398019
  C     -1.203027   -1.383305   -1.267783
  C     -2.679971   -1.113507   -0.936612
  C     -3.203344   -1.911700    0.266799
  C     -4.645672   -1.554892    0.632753
  C     -0.332782    1.061271    0.061539
  C     -0.622131    1.620613    1.321230
  C     -0.860084    2.999553    1.439301
  C     -0.810119    3.821992    0.301079
  C     -0.521845    3.266313   -0.958500
  C     -0.283466    1.888415   -1.079473
  H      5.112004   -0.697126    1.744047
  H      5.140778    0.880669    0.903696
  H      6.245305   -0.429173    0.383002
  H      4.300466   -0.243582   -1.223503
  H      4.280145   -1.811760   -0.393975
  H      2.554699   -0.933995    1.242802
  H      2.587731    0.642749    0.430149
  H      1.771430   -2.027685   -0.926454
  H      1.686620   -0.409448   -1.687864
  H     -1.003697   -2.473470   -1.359709
  H     -0.915020   -0.918441   -2.235588
  H     -2.815662   -0.024494   -0.748648
  H     -3.296401   -1.341363   -1.834738
  H     -3.127928   -2.998337    0.036328
  H     -2.526482   -1.745308    1.131103
  H     -4.734080   -0.484178    0.914611
  H     -5.340776   -1.730671   -0.216296
  H     -5.008597   -2.155259    1.491559
  H     -0.652623    0.946991    2.192211
  H     -1.085991    3.435635    2.424719
  H     -0.997117    4.903008    0.393540
  H     -0.483481    3.911096   -1.850071
  H     -0.059723    1.461493   -2.070584

 Multiplicity           Mult            ....    1
 Number of Electrons    NEL             ....  130
 Basis Dimension        Dim             ....  343

ORBITAL ENERGIES
----------------

  NO   OCC          E(Eh)            E(eV)
   0   2.0000     -76.407496     -2079.1537
   1   2.0000     -18.713781      -509.2279
   2   2.0000      -9.935278      -270.3526
   3   2.0000      -9.931059      -270.2379
   4   2.0000      -9.930825      -270.2315
   5   2.0000      -9.928159      -270.1589
   6   2.0000      -9.926652      -270.1179
   7   2.0000      -9.926421      -270.1117
   8   2.0000      -9.925031      -270.0738
   9   2.0000      -9.923701      -270.0376
  10   2.0000      -9.916979      -269.8547
  11   2.0000      -9.915734      -269.8208
  12   2.0000      -9.914504      -269.7874
  13   2.0000      -9.906966      -269.5823
  14   2.0000      -9.899698      -269.3845
  15   2.0000      -9.899420      -269.3769
  16   2.0000      -6.366752      -173.2481
  17   2.0000      -4.588238      -124.8523
  18   2.0000      -4.587660      -124.8366
  19   2.0000      -4.587628      -124.8357
  20   2.0000      -0.846513       -23.0348
  21   2.0000      -0.779093       -21.2002
  22   2.0000      -0.725252       -19.7351
  23   2.0000      -0.718077       -19.5399
  24   2.0000      -0.685849       -18.6629
  25   2.0000      -0.677413       -18.4333
  26   2.0000      -0.663766       -18.0620
  27   2.0000      -0.651929       -17.7399
  28   2.0000      -0.591086       -16.0843
  29   2.0000      -0.559823       -15.2336
  30   2.0000      -0.552835       -15.0434
  31   2.0000      -0.546969       -14.8838
  32   2.0000      -0.518912       -14.1203
  33   2.0000      -0.510393       -13.8885
  34   2.0000      -0.491931       -13.3861
  35   2.0000      -0.456191       -12.4136
  36   2.0000      -0.427841       -11.6422
  37   2.0000      -0.418579       -11.3901
  38   2.0000      -0.414313       -11.2740
  39   2.0000      -0.405009       -11.0208
  40   2.0000      -0.398962       -10.8563
  41   2.0000      -0.391281       -10.6473
  42   2.0000      -0.385021       -10.4769
  43   2.0000      -0.382131       -10.3983
  44   2.0000      -0.377066       -10.2605
  45   2.0000      -0.369112       -10.0441
  46   2.0000      -0.360217        -9.8020
  47   2.0000      -0.345691        -9.4067
  48   2.0000      -0.339305        -9.2330
  49   2.0000      -0.332999        -9.0614
  50   2.0000      -0.322140        -8.7659
  51   2.0000      -0.317162        -8.6304
  52   2.0000      -0.314413        -8.5556
  53   2.0000      -0.308551        -8.3961
  54   2.0000      -0.297876        -8.1056
  55   2.0000      -0.296808        -8.0765
  56   2.0000      -0.294456        -8.0126
  57   2.0000      -0.289129        -7.8676
  58   2.0000      -0.284137        -7.7317
  59   2.0000      -0.283658        -7.7187
  60   2.0000      -0.279339        -7.6012
  61   2.0000      -0.241238        -6.5644
  62   2.0000      -0.240310        -6.5392
  63   2.0000      -0.215364        -5.8604
  64   2.0000      -0.209257        -5.6942
  65   0.0000      -0.063442        -1.7263
  66   0.0000      -0.052433        -1.4268
  67   0.0000       0.016277         0.4429
  68   0.0000       0.040786         1.1098
  69   0.0000       0.042259         1.1499

MULLIKEN ATOMIC CHARGES
-----------------------
   0 C :   -0.044207
   1 C :   -0.046670
   2 C :   -0.041221
   3 C :   -0.122098
   4 P :    0.490910
   5 O :   -0.461305
   6 C :   -0.113336
   7 C :   -0.029100
   8 C :   -0.073797
   9 C :   -0.045844
  10 C :   -0.139202
  11 C :    0.004361
  12 C :    0.003626
  13 C :    0.007079
  14 C :   -0.002545
  15 C :   -0.008623
  16 H :    0.031790
  17 H :    0.028556
  18 H :    0.030163
  19 H :    0.014817
  20 H :    0.020078
  21 H :    0.043593
  22 H :    0.029802
  23 H :    0.053249
  24 H :    0.034205
  25 H :    0.055615
  26 H :    0.037374
  27 H :    0.031014
  28 H :    0.019351
  29 H :    0.013616
  30 H :    0.053141
  31 H :    0.026791
  32 H :    0.018814
  33 H :    0.031215
  34 H :    0.024125
  35 H :    0.010524
  36 H :    0.009323
  37 H :    0.005646
  38 H :   -0.000828
Sum of atomic charges:   -0.0000000

LOEWDIN ATOMIC CHARGES
----------------------
   0 C :   -0.073806
   1 C :   -0.050691
   2 C :   -0.055722
   3 C :   -0.188311
   4 P :    0.877825
   5 O :   -0.496208
   6 C :   -0.188883
   7 C :   -0.053306
   8 C :   -0.057423
   9 C :   -0.075050
  10 C :   -0.187720
  11 C :   -0.018828
  12 C :   -0.026823
  13 C :   -0.022547
  14 C :   -0.030048
  15 C :   -0.037044
  16 H :    0.029276
  17 H :    0.027649
  18 H :    0.029359
  19 H :    0.023182
  20 H :    0.025363
  21 H :    0.032934
  22 H :    0.028828
  23 H :    0.035925
  24 H :    0.027850
  25 H :    0.037204
  26 H :    0.031000
  27 H :    0.027362
  28 H :    0.026799
  29 H :    0.023966
  30 H :    0.028614
  31 H :    0.026804
  32 H :    0.022856
  33 H :    0.030127
  34 H :    0.038207
  35 H :    0.035620
  36 H :    0.034706
  37 H :    0.034035
  38 H :    0.026917

  Mayer bond orders larger than 0.100000
B(  0-C ,  1-C ) :   1.1152 B(  0-C , 16-H ) :   0.9658 B(  0-C , 17-H ) :   0.9660
B(  0-C , 18-H ) :   0.9619 B(  1-C ,  2-C ) :   1.0855 B(  1-C , 19-H ) :   0.9386
B(  1-C , 20-H ) :   0.9403 B(  2-C ,  3-C ) :   1.0595 B(  2-C , 21-H ) :   0.9300
B(  2-C , 22-H ) :   0.9386 B(  3-C ,  4-P ) :   0.9174 B(  3-C , 23-H ) :   0.9221
B(  3-C , 24-H ) :   0.9102 B(  4-P ,  5-O ) :   1.8295 B(  4-P ,  6-C ) :   0.9242
B(  4-P , 10-C ) :   0.8581 B(  6-C ,  7-C ) :   1.0755 B(  6-C , 25-H ) :   0.9192
B(  6-C , 26-H ) :   0.9074 B(  7-C ,  8-C ) :   1.0804 B(  7-C , 27-H ) :   0.9373
B(  7-C , 28-H ) :   0.9318 B(  8-C ,  9-C ) :   1.1106 B(  8-C , 29-H ) :   0.9366
B(  8-C , 30-H ) :   0.9265 B(  9-C , 31-H ) :   0.9664 B(  9-C , 32-H ) :   0.9642
B(  9-C , 33-H ) :   0.9631 B( 10-C , 11-C ) :   1.3936 B( 10-C , 15-C ) :   1.3362
B( 11-C , 12-C ) :   1.3627 B( 11-C , 34-H ) :   0.9687 B( 12-C , 13-C ) :   1.3841
B( 12-C , 35-H ) :   0.9793 B( 13-C , 14-C ) :   1.3776 B( 13-C , 36-H ) :   0.9757
B( 14-C , 15-C ) :   1.4053 B( 14-C , 37-H ) :   0.9752 B( 15-C , 38-H ) :   0.9727

Dispersion correction           -0.072466632
FINAL SINGLE POINT ENERGY      -963.498043719650

DIPOLE MOMENT
-------------

Method             : SCF
Type of density    : Electron Density
Multiplicity       :   1
Irrep              :   0
Energy             :  -963.4255770877955456 Eh
Relativity type    :
Basis              : AO
                                X                 Y                 Z
Electronic contribution:     -3.020880556       6.386201685       1.713319658
Nuclear contribution   :      3.241804017      -5.672001482      -2.888347326
                        -----------------------------------------
Total Dipole Moment    :      0.220923461       0.714200202      -1.175027668
                        -----------------------------------------
Magnitude (a.u.)       :      1.392687734
Magnitude (Debye)      :      3.539930898

Rotational constants in cm-1:             0.017523             0.010329             0.007650
Rotational constants in MHz :           525.340458           309.640682           229.344652

                             ****ORCA TERMINATED NORMALLY****
TOTAL RUN TIME: 0 days 0 hours 2 minutes 39 seconds 871 msec
