                         Program Version 6.0.0  -   RELEASE   -
|  1> ! RIJONX B3LYP def2-SVP D3BJ TIGHTSCF Opt
|  2> %pal
|  3> nprocs 6
|  4> end
|  5>
|  6> * xyz 0 1
|  7> C     -1.882071   -3.461617    0.572196
|  8> C     -1.596128   -2.360058    1.374976
|  9> C     -1.010959   -1.220137    0.817890
| 10> C     -0.705455   -1.166350   -0.549853
| 11> C     -0.999797   -2.283823   -1.345200
| 12> C     -1.584377   -3.424015   -0.787804
| 13> P      0.068448    0.290059   -1.334932
| 14> C      1.616476    0.466242   -0.329726
| 15> C      2.583476   -0.702130   -0.550145
| 16> C      3.924560   -0.497096    0.156202
| 17> N      3.772381   -0.423969    1.604500
| 18> C     -1.001949    1.646886   -0.733020
| 19> C     -0.488473    2.825116   -0.172328
| 20> C     -1.338569    3.849900    0.257810
| 21> C     -2.717519    3.719599    0.122507
| 22> C     -3.247432    2.567916   -0.449804
| 23> C     -2.396708    1.545291   -0.879369
| 24> H     -2.338584   -4.347376    1.005705
| 25> H     -1.830374   -2.383620    2.435974
| 26> H     -0.803352   -0.371073    1.465625
| 27> H     -0.776699   -2.276773   -2.410153
| 28> H     -1.807528   -4.281049   -1.417687
| 29> H      1.372287    0.564138    0.733195
| 30> H      2.116886    1.391348   -0.637618
| 31> H      2.134814   -1.643182   -0.207448
| 32> H      2.779432   -0.825508   -1.623324
| 33> H      4.400900    0.421599   -0.202765
| 34> H      4.592415   -1.329701   -0.090985
| 35> H      4.693393   -0.370877    2.038647
| 36> H      3.347978   -1.286379    1.946659
| 37> H      0.581275    2.976169   -0.061498
| 38> H     -0.918773    4.752419    0.694504
| 39> H     -3.376686    4.516469    0.455651
| 40> H     -4.322512    2.461599   -0.567155
| 41> H     -2.840775    0.659983   -1.331225
| 42> **                         ****END OF INPUT****
 Total Charge           Charge          ....    0
 Multiplicity           Mult            ....    1
 Number of Electrons    NEL             ....  130
Dispersion correction           -0.077427099
FINAL SINGLE POINT ENERGY      -977.583006479510
Dispersion correction             ... done (  0.1 sec)
Dispersion correction           -0.077849042
FINAL SINGLE POINT ENERGY      -977.585877031053
Dispersion correction             ... done (  0.1 sec)
Dispersion correction           -0.078014961
FINAL SINGLE POINT ENERGY      -977.586538200859
Dispersion correction             ... done (  0.1 sec)
FINAL SINGLE POINT ENERGY      -977.586731739175
FINAL SINGLE POINT ENERGY      -977.586852180806
FINAL SINGLE POINT ENERGY      -977.586908276546
FINAL SINGLE POINT ENERGY      -977.586936791050
FINAL SINGLE POINT ENERGY      -977.586945631769
Dispersion correction             ... done (  0.1 sec)
Dispersion correction           -0.077957964
FINAL SINGLE POINT ENERGY      -977.586948374748
Dispersion correction             ... done (  0.1 sec)
Dispersion correction           -0.077963931
FINAL SINGLE POINT ENERGY      -977.586950415857
Dispersion correction             ... done (  0.1 sec)
                    ***********************HURRAY********************

CARTESIAN COORDINATES (ANGSTROEM)
---------------------------------
  C     -1.651262   -3.418126    0.783453
  C     -1.541852   -2.199221    1.463799
  C     -1.067027   -1.066342    0.801005
  C     -0.693859   -1.134299   -0.552237
  C     -0.813623   -2.359121   -1.226047
  C     -1.286301   -3.496865   -0.562441
  P      0.002841    0.317164   -1.473991
  C      1.607330    0.514752   -0.539217
  C      2.566324   -0.652887   -0.779792
  C      3.805034   -0.600062    0.118136
  N      3.428235   -0.646842    1.527727
  C     -1.024670    1.672944   -0.752506
  C     -0.515829    2.710309    0.044496
  C     -1.355306    3.727622    0.513472
  C     -2.715523    3.720831    0.199862
  C     -3.234616    2.691604   -0.594554
  C     -2.395708    1.685127   -1.071585
  H     -2.025607   -4.303947    1.303294
  H     -1.830681   -2.132570    2.516226
  H     -0.990343   -0.116148    1.335632
  H     -0.533941   -2.418541   -2.281751
  H     -1.374106   -4.444537   -1.100431
  H      1.420927    0.609893    0.541813
  H      2.073711    1.455474   -0.879738
  H      2.041999   -1.608516   -0.595608
  H      2.882572   -0.679772   -1.836526
  H      4.341577    0.349323   -0.059408
  H      4.498631   -1.411346   -0.193891
  H      4.248038   -0.551679    2.126141
  H      3.009771   -1.551546    1.750324
  H      0.541327    2.732122    0.313561
  H     -0.940183    4.526779    1.133552
  H     -3.370291    4.513765    0.570136
  H     -4.298283    2.677113   -0.846873
  H     -2.809306    0.887543   -1.696032

 Multiplicity           Mult            ....    1
 Number of Electrons    NEL             ....  130
 Basis Dimension        Dim             ....  332

ORBITAL ENERGIES
----------------

  NO   OCC          E(Eh)            E(eV)
   0   2.0000     -77.039950     -2096.3636
   1   2.0000     -14.301410      -389.1612
   2   2.0000     -10.204083      -277.6672
   3   2.0000     -10.189895      -277.2811
   4   2.0000     -10.188844      -277.2526
   5   2.0000     -10.188417      -277.2409
   6   2.0000     -10.188278      -277.2371
   7   2.0000     -10.187442      -277.2144
   8   2.0000     -10.186415      -277.1864
   9   2.0000     -10.186202      -277.1807
  10   2.0000     -10.185653      -277.1657
  11   2.0000     -10.185415      -277.1592
  12   2.0000     -10.185275      -277.1554
  13   2.0000     -10.184917      -277.1457
  14   2.0000     -10.184776      -277.1418
  15   2.0000     -10.179629      -277.0018
  16   2.0000     -10.175394      -276.8865
  17   2.0000      -6.536399      -177.8645
  18   2.0000      -4.702000      -127.9479
  19   2.0000      -4.701626      -127.9378
  20   2.0000      -4.698808      -127.8611
  21   2.0000      -0.868251       -23.6263
  22   2.0000      -0.845492       -23.0070
  23   2.0000      -0.839340       -22.8396
  24   2.0000      -0.769352       -20.9351
  25   2.0000      -0.741928       -20.1889
  26   2.0000      -0.734686       -19.9918
  27   2.0000      -0.731647       -19.9091
  28   2.0000      -0.728497       -19.8234
  29   2.0000      -0.667705       -18.1692
  30   2.0000      -0.616062       -16.7639
  31   2.0000      -0.596716       -16.2375
  32   2.0000      -0.593169       -16.1409
  33   2.0000      -0.585835       -15.9414
  34   2.0000      -0.571665       -15.5558
  35   2.0000      -0.542574       -14.7642
  36   2.0000      -0.510252       -13.8847
  37   2.0000      -0.493936       -13.4407
  38   2.0000      -0.486959       -13.2508
  39   2.0000      -0.457270       -12.4430
  40   2.0000      -0.450902       -12.2697
  41   2.0000      -0.447474       -12.1764
  42   2.0000      -0.444104       -12.0847
  43   2.0000      -0.438544       -11.9334
  44   2.0000      -0.427171       -11.6239
  45   2.0000      -0.418325       -11.3832
  46   2.0000      -0.414887       -11.2897
  47   2.0000      -0.409555       -11.1445
  48   2.0000      -0.402756       -10.9595
  49   2.0000      -0.382704       -10.4139
  50   2.0000      -0.366249        -9.9661
  51   2.0000      -0.363964        -9.9040
  52   2.0000      -0.359557        -9.7841
  53   2.0000      -0.344458        -9.3732
  54   2.0000      -0.342344        -9.3157
  55   2.0000      -0.340866        -9.2754
  56   2.0000      -0.334467        -9.1013
  57   2.0000      -0.314578        -8.5601
  58   2.0000      -0.308273        -8.3885
  59   2.0000      -0.264309        -7.1922
  60   2.0000      -0.254302        -6.9199
  61   2.0000      -0.253277        -6.8920
  62   2.0000      -0.249079        -6.7778
  63   2.0000      -0.232037        -6.3140
  64   2.0000      -0.212367        -5.7788
  65   0.0000      -0.019812        -0.5391
  66   0.0000      -0.012661        -0.3445
  67   0.0000      -0.009349        -0.2544
  68   0.0000       0.000266         0.0072
  69   0.0000       0.051671         1.4060

MULLIKEN ATOMIC CHARGES
-----------------------
   0 C :    0.021694
   1 C :    0.022907
   2 C :    0.037242
   3 C :   -0.154676
   4 C :    0.021646
   5 C :    0.017022
   6 P :    0.276885
   7 C :   -0.160325
   8 C :    0.027554
   9 C :    0.113251
  10 N :   -0.228629
  11 C :   -0.132090
  12 C :   -0.008032
  13 C :    0.026830
  14 C :    0.020253
  15 C :    0.020239
  16 C :    0.022118
  17 H :   -0.016500
  18 H :   -0.018352
  19 H :   -0.005820
  20 H :   -0.021467
  21 H :   -0.017497
  22 H :    0.042612
  23 H :    0.031195
  24 H :    0.005144
  25 H :    0.001026
  26 H :   -0.011421
  27 H :   -0.015890
  28 H :    0.088895
  29 H :    0.089631
  30 H :   -0.018853
  31 H :   -0.021062
  32 H :   -0.018722
  33 H :   -0.018085
  34 H :   -0.018722
Sum of atomic charges:   -0.0000000

LOEWDIN ATOMIC CHARGES
----------------------
   0 C :   -0.023137
   1 C :   -0.026849
   2 C :   -0.020883
   3 C :   -0.171922
   4 C :   -0.033561
   5 C :   -0.029073
   6 P :    0.492277
   7 C :   -0.172678
   8 C :   -0.048249
   9 C :    0.020145
  10 N :   -0.120481
  11 C :   -0.171832
  12 C :   -0.041042
  13 C :   -0.025510
  14 C :   -0.028147
  15 C :   -0.025010
  16 C :   -0.028030
  17 H :    0.026256
  18 H :    0.026570
  19 H :    0.028316
  20 H :    0.022323
  21 H :    0.026425
  22 H :    0.017343
  23 H :    0.019962
  24 H :    0.018586
  25 H :    0.021885
  26 H :    0.014112
  27 H :   -0.002216
  28 H :    0.054561
  29 H :    0.053319
  30 H :    0.024334
  31 H :    0.025778
  32 H :    0.025621
  33 H :    0.026570
  34 H :    0.024237

  Mayer bond orders larger than 0.100000
B(  0-C ,  1-C ) :   1.3671 B(  0-C ,  5-C ) :   1.3926 B(  0-C , 17-H ) :   0.9845
B(  1-C ,  2-C ) :   1.4039 B(  1-C , 18-H ) :   0.9839 B(  2-C ,  3-C ) :   1.3693
B(  2-C , 19-H ) :   0.9758 B(  3-C ,  4-C ) :   1.3875 B(  3-C ,  6-P ) :   0.9279
B(  4-C ,  5-C ) :   1.3772 B(  4-C , 20-H ) :   0.9847 B(  5-C , 21-H ) :   0.9858
B(  6-P ,  7-C ) :   0.9822 B(  6-P , 11-C ) :   0.9138 B(  7-C ,  8-C ) :   1.0534
B(  7-C , 22-H ) :   0.9142 B(  7-C , 23-H ) :   0.9339 B(  8-C ,  9-C ) :   1.0914
B(  8-C , 24-H ) :   0.9372 B(  8-C , 25-H ) :   0.9343 B(  9-C , 10-N ) :   1.0740
B(  9-C , 26-H ) :   0.9397 B(  9-C , 27-H ) :   0.9376 B( 10-N , 28-H ) :   0.9673
B( 10-N , 29-H ) :   0.9691 B( 11-C , 12-C ) :   1.3889 B( 11-C , 16-C ) :   1.3674
B( 12-C , 13-C ) :   1.3792 B( 12-C , 30-H ) :   0.9788 B( 13-C , 14-C ) :   1.3935
B( 13-C , 31-H ) :   0.9818 B( 14-C , 15-C ) :   1.3668 B( 14-C , 32-H ) :   0.9843
B( 15-C , 16-C ) :   1.4206 B( 15-C , 33-H ) :   0.9843 B( 16-C , 34-H ) :   0.9800

Dispersion correction           -0.077956966
FINAL SINGLE POINT ENERGY      -977.586950848998

DIPOLE MOMENT
-------------

Method             : SCF
Type of density    : Electron Density
Multiplicity       :   1
Irrep              :   0
Energy             :  -977.5089938833666565 Eh
Relativity type    :
Basis              : AO
                                X                 Y                 Z
Electronic contribution:    -10.544222984       2.585174688      -5.868084493
Nuclear contribution   :     11.005327032      -3.034667309       6.453395181
                        -----------------------------------------
Total Dipole Moment    :      0.461104048      -0.449492621       0.585310689
                        -----------------------------------------
Magnitude (a.u.)       :      0.870200644
Magnitude (Debye)      :      2.211874257

Rotational constants in cm-1:             0.016294             0.010749             0.007827
Rotational constants in MHz :           488.469949           322.247484           234.638013

                             ****ORCA TERMINATED NORMALLY****
TOTAL RUN TIME: 0 days 0 hours 7 minutes 3 seconds 335 msec
