                         Program Version 6.0.0  -   RELEASE   -
|  1> ! RIJCOSX M062X def2-TZVP D3ZERO NormalSCF
|  2> %pal
|  3> nprocs 6
|  4> end
|  5>
|  6> * xyz 0 1
|  7>   C          -4.52256732044359      5.27221347625914      1.66834377697696
|  8>   C          -3.27508181055603      4.40193743239101      1.85779360013740
|  9>   C          -3.47673168252801      2.91950285927808      1.49863591387058
| 10>   C          -3.88899720807072      2.64271462183043      0.04322710138626
| 11>   C          -2.92214659530894      3.18034276134249     -1.02772929499861
| 12>   C          -1.45980497288290      2.73232214071048     -0.86842591971656
| 13>   C          -1.28355656258699      1.21145981200704     -0.79019180680830
| 14>   C           0.18304121018041      0.76529950430436     -0.68884146185071
| 15>   P           0.27948219738099     -0.98185857276954     -0.11178045133666
| 16>   O          -0.57672651557562     -1.22543777395172      1.12733063213377
| 17>   C           2.05734967521298     -1.34807360564726      0.19453750277081
| 18>   C           3.04346273156249     -1.03606099688229     -0.93901102599220
| 19>   C           4.49080743886366     -1.46478848385902     -0.64223655167582
| 20>   C           5.15485225209796     -0.69467754820901      0.50651081065343
| 21>   C           6.58822062717530     -1.14855261948003      0.82981028266365
| 22>   C           7.59535209155931     -1.03771376765341     -0.32991247649293
| 23>   C           7.72460397984162      0.36060251908437     -0.95813976017511
| 24>   C           8.16642098036641      1.45426765211407      0.02047924988443
| 25>   C          -0.24220872087840     -2.01034796396563     -1.55453620665104
| 26>   C          -0.66796660668956     -3.42911164523140     -1.11780760658046
| 27>   C          -1.98022194864374     -3.91322545102868     -1.76715747041366
| 28>   C          -3.17231132835860     -2.95632824950245     -1.57974577619430
| 29>   C          -3.43613996306207     -2.54120959374759     -0.12710282422128
| 30>   C          -4.54284817276527     -1.48836724020307      0.01203010470020
| 31>   C          -4.67085029776842     -0.89750146638238      1.42549814197928
| 32>   C          -5.08696007310739     -1.90889657682617      2.49912607459091
| 33>   H          -5.38051080582087      4.87711177424863      2.25309845037313
| 34>   H          -4.34461323278580      6.31566781641612      1.99985320678113
| 35>   H          -4.84124462446475      5.31534681011149      0.60622928379477
| 36>   H          -2.94043332158930      4.46533503495613      2.91615975969223
| 37>   H          -2.43696415194794      4.82297640301509      1.25873105033790
| 38>   H          -2.54316813205738      2.36167805681995      1.73103724512135
| 39>   H          -4.25012608501507      2.48509530441497      2.17006840502840
| 40>   H          -4.89860195634565      3.06674467565493     -0.14772383403273
| 41>   H          -4.00782512074840      1.54577099903835     -0.08153183988195
| 42>   H          -2.95355121480496      4.29190738144570     -1.03885511678528
| 43>   H          -3.29237278701851      2.86244950917912     -2.02785115771582
| 44>   H          -1.02341551170489      3.18738623760559      0.04882029521431
| 45>   H          -0.86084124996684      3.13497118867957     -1.71525404322746
| 46>   H          -1.81708232077199      0.81310591214592      0.09804637224960
| 47>   H          -1.76475004686994      0.73519036108424     -1.67373912704872
| 48>   H           0.71434317395260      1.36804205031709      0.08033583944160
| 49>   H           0.73337396073489      0.89489996583352     -1.64567607187581
| 50>   H           2.30130380354276     -0.79350398069404      1.12555121994588
| 51>   H           2.09025762522131     -2.42623887493254      0.46635188785754
| 52>   H           3.02750470812927      0.05397974079900     -1.16114200700542
| 53>   H           2.70631303426536     -1.54127915759664     -1.86999293616425
| 54>   H           5.08917911054020     -1.33741230681700     -1.56980144121933
| 55>   H           4.51112511081499     -2.55559375880713     -0.41657708250570
| 56>   H           4.54100342196273     -0.79753856828000      1.42720696276982
| 57>   H           5.14587078318243      0.39227359565112      0.26431221576240
| 58>   H           6.56234817725753     -2.20590107005722      1.17530011395553
| 59>   H           6.95797062653061     -0.56300892447675      1.69933726591107
| 60>   H           8.59361080733545     -1.36107231256862      0.04071985402269
| 61>   H           7.32691420857842     -1.76549252881510     -1.12667719282409
| 62>   H           8.45079475587229      0.30318696839398     -1.79800091426082
| 63>   H           6.75767926450063      0.65184419820233     -1.42615865991619
| 64>   H           7.42349520558224      1.61264737500492      0.82935624203818
| 65>   H           9.13095835494269      1.19408640583222      0.50622883854889
| 66>   H           8.30374175072170      2.42742708323070     -0.49348920559605
| 67>   H          -1.10132711433426     -1.46378857097553     -1.99510613689593
| 68>   H           0.55146874675223     -2.01108783785473     -2.33069064292371
| 69>   H          -0.79622742562446     -3.43176909568336     -0.01438675837842
| 70>   H           0.14504173573611     -4.15216895377623     -1.33721824908654
| 71>   H          -2.23253341127870     -4.90529116762857     -1.33219194700304
| 72>   H          -1.82220881079136     -4.08726229990292     -2.85501528088926
| 73>   H          -4.08205950197400     -3.42522204187135     -2.01615156752668
| 74>   H          -3.01015579161906     -2.03650594811084     -2.18876324473409
| 75>   H          -2.50905606515707     -2.12649629199091      0.32620090055989
| 76>   H          -3.68580590928087     -3.44664943320444      0.47011894806300
| 77>   H          -4.32855610869213     -0.65779766147931     -0.69928531809035
| 78>   H          -5.52253851372949     -1.91150694867686     -0.31086472466285
| 79>   H          -3.69606457555813     -0.44210563948639      1.70898265968779
| 80>   H          -5.40709553562736     -0.06403810852509      1.40241246784110
| 81>   H          -5.21208240554029     -1.42149098221608      3.48772461218242
| 82>   H          -4.32998750738880     -2.71006443672291      2.62310109287700
| 83>   H          -6.05157153266306     -2.39734817091198      2.24225275155283
| 84> **                         ****END OF INPUT****

CARTESIAN COORDINATES (ANGSTROEM)
---------------------------------
  C     -4.522567    5.272213    1.668344
  C     -3.275082    4.401937    1.857794
  C     -3.476732    2.919503    1.498636
  C     -3.888997    2.642715    0.043227
  C     -2.922147    3.180343   -1.027729
  C     -1.459805    2.732322   -0.868426
  C     -1.283557    1.211460   -0.790192
  C      0.183041    0.765300   -0.688841
  P      0.279482   -0.981859   -0.111780
  O     -0.576727   -1.225438    1.127331
  C      2.057350   -1.348074    0.194538
  C      3.043463   -1.036061   -0.939011
  C      4.490807   -1.464788   -0.642237
  C      5.154852   -0.694678    0.506511
  C      6.588221   -1.148553    0.829810
  C      7.595352   -1.037714   -0.329912
  C      7.724604    0.360603   -0.958140
  C      8.166421    1.454268    0.020479
  C     -0.242209   -2.010348   -1.554536
  C     -0.667967   -3.429112   -1.117808
  C     -1.980222   -3.913225   -1.767157
  C     -3.172311   -2.956328   -1.579746
  C     -3.436140   -2.541210   -0.127103
  C     -4.542848   -1.488367    0.012030
  C     -4.670850   -0.897501    1.425498
  C     -5.086960   -1.908897    2.499126
  H     -5.380511    4.877112    2.253098
  H     -4.344613    6.315668    1.999853
  H     -4.841245    5.315347    0.606229
  H     -2.940433    4.465335    2.916160
  H     -2.436964    4.822976    1.258731
  H     -2.543168    2.361678    1.731037
  H     -4.250126    2.485095    2.170068
  H     -4.898602    3.066745   -0.147724
  H     -4.007825    1.545771   -0.081532
  H     -2.953551    4.291907   -1.038855
  H     -3.292373    2.862450   -2.027851
  H     -1.023416    3.187386    0.048820
  H     -0.860841    3.134971   -1.715254
  H     -1.817082    0.813106    0.098046
  H     -1.764750    0.735190   -1.673739
  H      0.714343    1.368042    0.080336
  H      0.733374    0.894900   -1.645676
  H      2.301304   -0.793504    1.125551
  H      2.090258   -2.426239    0.466352
  H      3.027505    0.053980   -1.161142
  H      2.706313   -1.541279   -1.869993
  H      5.089179   -1.337412   -1.569801
  H      4.511125   -2.555594   -0.416577
  H      4.541003   -0.797539    1.427207
  H      5.145871    0.392274    0.264312
  H      6.562348   -2.205901    1.175300
  H      6.957971   -0.563009    1.699337
  H      8.593611   -1.361072    0.040720
  H      7.326914   -1.765493   -1.126677
  H      8.450795    0.303187   -1.798001
  H      6.757679    0.651844   -1.426159
  H      7.423495    1.612647    0.829356
  H      9.130958    1.194086    0.506229
  H      8.303742    2.427427   -0.493489
  H     -1.101327   -1.463789   -1.995106
  H      0.551469   -2.011088   -2.330691
  H     -0.796227   -3.431769   -0.014387
  H      0.145042   -4.152169   -1.337218
  H     -2.232533   -4.905291   -1.332192
  H     -1.822209   -4.087262   -2.855015
  H     -4.082060   -3.425222   -2.016152
  H     -3.010156   -2.036506   -2.188763
  H     -2.509056   -2.126496    0.326201
  H     -3.685806   -3.446649    0.470119
  H     -4.328556   -0.657798   -0.699285
  H     -5.522539   -1.911507   -0.310865
  H     -3.696065   -0.442106    1.708983
  H     -5.407096   -0.064038    1.402412
  H     -5.212082   -1.421491    3.487725
  H     -4.329988   -2.710064    2.623101
  H     -6.051572   -2.397348    2.242253

 Total Charge           Charge          ....    0
 Multiplicity           Mult            ....    1
 Number of Electrons    NEL             ....  218
 Basis Dimension        Dim             .... 1118

ORBITAL ENERGIES
----------------

  NO   OCC          E(Eh)            E(eV)
   0   2.0000     -78.082277     -2124.7268
   1   2.0000     -19.562607      -532.3256
   2   2.0000     -10.553839      -287.1845
   3   2.0000     -10.547916      -287.0234
   4   2.0000     -10.547575      -287.0141
   5   2.0000     -10.544742      -286.9370
   6   2.0000     -10.543795      -286.9112
   7   2.0000     -10.541392      -286.8459
   8   2.0000     -10.539030      -286.7816
   9   2.0000     -10.537874      -286.7501
  10   2.0000     -10.537461      -286.7389
  11   2.0000     -10.536807      -286.7211
  12   2.0000     -10.535862      -286.6954
  13   2.0000     -10.535641      -286.6894
  14   2.0000     -10.532081      -286.5925
  15   2.0000     -10.531922      -286.5882
  16   2.0000     -10.530410      -286.5470
  17   2.0000     -10.528944      -286.5071
  18   2.0000     -10.526530      -286.4414
  19   2.0000     -10.525533      -286.4143
  20   2.0000     -10.525455      -286.4122
  21   2.0000     -10.523128      -286.3489
  22   2.0000     -10.518847      -286.2324
  23   2.0000     -10.518093      -286.2119
  24   2.0000     -10.512489      -286.0594
  25   2.0000     -10.511164      -286.0233
  26   2.0000      -6.889468      -187.4720
  27   2.0000      -5.006346      -136.2296
  28   2.0000      -5.006310      -136.2286
  29   2.0000      -5.004791      -136.1873
  30   2.0000      -1.054741       -28.7010
  31   2.0000      -0.921161       -25.0661
  32   2.0000      -0.913529       -24.8584
  33   2.0000      -0.905742       -24.6465
  34   2.0000      -0.893940       -24.3253
  35   2.0000      -0.883162       -24.0321
  36   2.0000      -0.875407       -23.8210
  37   2.0000      -0.852269       -23.1914
  38   2.0000      -0.840302       -22.8658
  39   2.0000      -0.831471       -22.6255
  40   2.0000      -0.802611       -21.8401
  41   2.0000      -0.788883       -21.4666
  42   2.0000      -0.782421       -21.2908
  43   2.0000      -0.756813       -20.5939
  44   2.0000      -0.742549       -20.2058
  45   2.0000      -0.733361       -19.9558
  46   2.0000      -0.707084       -19.2407
  47   2.0000      -0.700055       -19.0495
  48   2.0000      -0.692145       -18.8342
  49   2.0000      -0.667674       -18.1683
  50   2.0000      -0.659248       -17.9391
  51   2.0000      -0.637090       -17.3361
  52   2.0000      -0.625897       -17.0315
  53   2.0000      -0.624377       -16.9902
  54   2.0000      -0.612171       -16.6580
  55   2.0000      -0.599661       -16.3176
  56   2.0000      -0.554472       -15.0880
  57   2.0000      -0.551149       -14.9975
  58   2.0000      -0.548511       -14.9257
  59   2.0000      -0.539236       -14.6734
  60   2.0000      -0.533535       -14.5182
  61   2.0000      -0.532465       -14.4891
  62   2.0000      -0.524414       -14.2700
  63   2.0000      -0.520649       -14.1676
  64   2.0000      -0.510018       -13.8783
  65   2.0000      -0.502722       -13.6798
  66   2.0000      -0.501404       -13.6439
  67   2.0000      -0.494986       -13.4693
  68   2.0000      -0.488690       -13.2979
  69   2.0000      -0.485921       -13.2226
  70   2.0000      -0.481853       -13.1119
  71   2.0000      -0.475110       -12.9284
  72   2.0000      -0.472938       -12.8693
  73   2.0000      -0.465560       -12.6685
  74   2.0000      -0.462496       -12.5852
  75   2.0000      -0.456196       -12.4137
  76   2.0000      -0.453818       -12.3490
  77   2.0000      -0.449500       -12.2315
  78   2.0000      -0.446994       -12.1633
  79   2.0000      -0.440878       -11.9969
  80   2.0000      -0.434632       -11.8269
  81   2.0000      -0.432788       -11.7768
  82   2.0000      -0.428318       -11.6551
  83   2.0000      -0.421700       -11.4750
  84   2.0000      -0.419610       -11.4182
  85   2.0000      -0.414933       -11.2909
  86   2.0000      -0.413815       -11.2605
  87   2.0000      -0.405864       -11.0441
  88   2.0000      -0.402949       -10.9648
  89   2.0000      -0.402056       -10.9405
  90   2.0000      -0.399600       -10.8737
  91   2.0000      -0.395986       -10.7753
  92   2.0000      -0.393061       -10.6957
  93   2.0000      -0.391329       -10.6486
  94   2.0000      -0.384676       -10.4676
  95   2.0000      -0.379922       -10.3382
  96   2.0000      -0.377344       -10.2681
  97   2.0000      -0.376711       -10.2508
  98   2.0000      -0.375148       -10.2083
  99   2.0000      -0.372312       -10.1311
 100   2.0000      -0.366567        -9.9748
 101   2.0000      -0.366005        -9.9595
 102   2.0000      -0.362268        -9.8578
 103   2.0000      -0.360554        -9.8112
 104   2.0000      -0.359185        -9.7739
 105   2.0000      -0.356601        -9.7036
 106   2.0000      -0.350139        -9.5278
 107   2.0000      -0.323136        -8.7930
 108   2.0000      -0.316735        -8.6188
 109   0.0000       0.046148         1.2558
 110   0.0000       0.053964         1.4684
 111   0.0000       0.061004         1.6600
 112   0.0000       0.063943         1.7400
 113   0.0000       0.067972         1.8496

MULLIKEN ATOMIC CHARGES
-----------------------
   0 C :   -0.436036
   1 C :   -0.254176
   2 C :   -0.316677
   3 C :   -0.314072
   4 C :   -0.297801
   5 C :   -0.298052
   6 C :   -0.334901
   7 C :   -0.414089
   8 P :    0.703419
   9 O :   -0.608235
  10 C :   -0.407236
  11 C :   -0.299463
  12 C :   -0.296971
  13 C :   -0.313403
  14 C :   -0.324060
  15 C :   -0.313617
  16 C :   -0.256491
  17 C :   -0.436805
  18 C :   -0.453735
  19 C :   -0.304814
  20 C :   -0.274424
  21 C :   -0.291387
  22 C :   -0.347384
  23 C :   -0.283044
  24 C :   -0.290913
  25 C :   -0.441606
  26 H :    0.141725
  27 H :    0.142588
  28 H :    0.138610
  29 H :    0.138713
  30 H :    0.137511
  31 H :    0.168337
  32 H :    0.158475
  33 H :    0.168210
  34 H :    0.124346
  35 H :    0.159243
  36 H :    0.151888
  37 H :    0.163254
  38 H :    0.145366
  39 H :    0.171720
  40 H :    0.153512
  41 H :    0.176868
  42 H :    0.180576
  43 H :    0.187082
  44 H :    0.186735
  45 H :    0.164760
  46 H :    0.152361
  47 H :    0.154828
  48 H :    0.156844
  49 H :    0.155312
  50 H :    0.156820
  51 H :    0.153271
  52 H :    0.167348
  53 H :    0.152819
  54 H :    0.156463
  55 H :    0.138815
  56 H :    0.137532
  57 H :    0.140006
  58 H :    0.142854
  59 H :    0.144602
  60 H :    0.171258
  61 H :    0.178105
  62 H :    0.201219
  63 H :    0.144430
  64 H :    0.148027
  65 H :    0.144226
  66 H :    0.149142
  67 H :    0.141728
  68 H :    0.177796
  69 H :    0.153129
  70 H :    0.140536
  71 H :    0.149020
  72 H :    0.172844
  73 H :    0.139917
  74 H :    0.139289
  75 H :    0.151071
  76 H :    0.134842
Sum of atomic charges:   -0.0000000

LOEWDIN ATOMIC CHARGES
----------------------
   0 C :   -0.325553
   1 C :   -0.304918
   2 C :   -0.283359
   3 C :   -0.281194
   4 C :   -0.276105
   5 C :   -0.277525
   6 C :   -0.295522
   7 C :   -0.369500
   8 P :    0.573727
   9 O :   -0.333633
  10 C :   -0.370775
  11 C :   -0.295757
  12 C :   -0.274882
  13 C :   -0.278632
  14 C :   -0.278484
  15 C :   -0.283114
  16 C :   -0.306944
  17 C :   -0.325075
  18 C :   -0.365192
  19 C :   -0.290624
  20 C :   -0.276091
  21 C :   -0.282238
  22 C :   -0.279689
  23 C :   -0.283604
  24 C :   -0.311417
  25 C :   -0.324218
  26 H :    0.123273
  27 H :    0.121667
  28 H :    0.119844
  29 H :    0.138162
  30 H :    0.134524
  31 H :    0.142046
  32 H :    0.141448
  33 H :    0.140309
  34 H :    0.139421
  35 H :    0.139597
  36 H :    0.140389
  37 H :    0.140231
  38 H :    0.139302
  39 H :    0.149093
  40 H :    0.139024
  41 H :    0.148489
  42 H :    0.139538
  43 H :    0.148314
  44 H :    0.150480
  45 H :    0.141616
  46 H :    0.138952
  47 H :    0.141267
  48 H :    0.142493
  49 H :    0.140891
  50 H :    0.139228
  51 H :    0.141367
  52 H :    0.140393
  53 H :    0.140747
  54 H :    0.137833
  55 H :    0.138078
  56 H :    0.134741
  57 H :    0.120396
  58 H :    0.123631
  59 H :    0.122624
  60 H :    0.145160
  61 H :    0.136461
  62 H :    0.149346
  63 H :    0.136858
  64 H :    0.141636
  65 H :    0.137506
  66 H :    0.139401
  67 H :    0.131469
  68 H :    0.152438
  69 H :    0.139153
  70 H :    0.133298
  71 H :    0.136069
  72 H :    0.143146
  73 H :    0.134381
  74 H :    0.121052
  75 H :    0.123190
  76 H :    0.120343

  Mayer bond orders larger than 0.100000
B(  0-C ,  1-C ) :   0.9325 B(  0-C , 26-H ) :   0.9735 B(  0-C , 27-H ) :   0.9780
B(  0-C , 28-H ) :   0.9673 B(  1-C ,  2-C ) :   0.9355 B(  1-C , 29-H ) :   0.9836
B(  1-C , 30-H ) :   0.9733 B(  2-C ,  3-C ) :   0.8954 B(  2-C , 31-H ) :   0.9699
B(  2-C , 32-H ) :   0.9807 B(  3-C ,  4-C ) :   0.8867 B(  3-C , 33-H ) :   0.9862
B(  3-C , 34-H ) :   0.9835 B(  4-C ,  5-C ) :   0.9193 B(  4-C , 35-H ) :   0.9868
B(  4-C , 36-H ) :   0.9846 B(  5-C ,  6-C ) :   0.9058 B(  5-C , 37-H ) :   0.9908
B(  5-C , 38-H ) :   0.9833 B(  6-C ,  7-C ) :   0.9243 B(  6-C , 39-H ) :   0.9598
B(  6-C , 40-H ) :   0.9598 B(  7-C ,  8-P ) :   0.9025 B(  7-C , 41-H ) :   0.9493
B(  7-C , 42-H ) :   0.9496 B(  8-P ,  9-O ) :   1.8717 B(  8-P , 10-C ) :   0.9466
B(  8-P , 18-C ) :   0.9146 B( 10-C , 11-C ) :   0.8299 B( 10-C , 43-H ) :   0.9574
B( 10-C , 44-H ) :   0.9528 B( 11-C , 12-C ) :   0.9430 B( 11-C , 45-H ) :   0.9776
B( 11-C , 46-H ) :   0.9797 B( 12-C , 13-C ) :   0.8875 B( 12-C , 47-H ) :   0.9804
B( 12-C , 48-H ) :   0.9756 B( 13-C , 14-C ) :   0.9174 B( 13-C , 49-H ) :   0.9796
B( 13-C , 50-H ) :   0.9727 B( 14-C , 15-C ) :   0.8954 B( 14-C , 51-H ) :   0.9801
B( 14-C , 52-H ) :   0.9933 B( 15-C , 16-C ) :   0.9198 B( 15-C , 53-H ) :   0.9834
B( 15-C , 54-H ) :   0.9817 B( 16-C , 17-C ) :   0.9368 B( 16-C , 55-H ) :   0.9804
B( 16-C , 56-H ) :   0.9699 B( 17-C , 57-H ) :   0.9655 B( 17-C , 58-H ) :   0.9729
B( 17-C , 59-H ) :   0.9773 B( 18-C , 19-C ) :   0.8685 B( 18-C , 60-H ) :   0.9528
B( 18-C , 61-H ) :   0.9420 B( 19-C , 20-C ) :   0.9140 B( 19-C , 62-H ) :   0.9699
B( 19-C , 63-H ) :   0.9723 B( 20-C , 21-C ) :   0.9358 B( 20-C , 64-H ) :   0.9838
B( 20-C , 65-H ) :   0.9885 B( 21-C , 22-C ) :   0.8773 B( 21-C , 66-H ) :   0.9808
B( 21-C , 67-H ) :   0.9960 B( 22-C , 23-C ) :   0.8830 B( 22-C , 68-H ) :   0.9592
B( 22-C , 69-H ) :   0.9742 B( 23-C , 24-C ) :   0.9149 B( 23-C , 70-H ) :   0.9854
B( 23-C , 71-H ) :   0.9842 B( 24-C , 25-C ) :   0.9414 B( 24-C , 72-H ) :   0.9664
B( 24-C , 73-H ) :   0.9806 B( 25-C , 74-H ) :   0.9783 B( 25-C , 75-H ) :   0.9739
B( 25-C , 76-H ) :   0.9765

Dispersion correction           -0.006162587
FINAL SINGLE POINT ENERGY     -1361.775178744013

DIPOLE MOMENT
-------------

Method             : SCF
Type of density    : Electron Density
Multiplicity       :   1
Irrep              :   0
Energy             : -1361.7690161567954874 Eh
Relativity type    :
Basis              : AO
                                X                 Y                 Z
Electronic contribution:      2.011819731     -10.591043737      -1.943311416
Nuclear contribution   :     -0.801163746      10.860797212       0.766670342
                        -----------------------------------------
Total Dipole Moment    :      1.210655986       0.269753475      -1.176641074
                        -----------------------------------------
Magnitude (a.u.)       :      1.709660513
Magnitude (Debye)      :      4.345611672

Rotational constants in cm-1:             0.006514             0.002380             0.001916
Rotational constants in MHz :           195.281471            71.365266            57.431078

                             ****ORCA TERMINATED NORMALLY****
TOTAL RUN TIME: 0 days 0 hours 3 minutes 46 seconds 378 msec
