                         Program Version 6.0.0  -   RELEASE   -
|  1> ! RIJCOSX M062X def2-TZVP D3ZERO NormalSCF
|  2> %pal
|  3> nprocs 6
|  4> end
|  5>
|  6> * xyz 0 1
|  7>   C           4.04056976472763     -1.28295692931974     -0.30191208601129
|  8>   C           2.73320064124288     -0.70599281344493     -0.85221034306975
|  9>   C           1.50114191110407     -1.14898004427261     -0.05081362727670
| 10>   P          -0.04907020846595     -0.52080963120494     -0.81876557746064
| 11>   O          -0.20128792735272     -0.85978660259540     -2.29361474326827
| 12>   C          -0.01722214693784      1.29530112457588     -0.54542752504903
| 13>   C          -0.09281493024601      2.09701210247228     -1.70107442168882
| 14>   C          -0.05729091798259      3.49617439432188     -1.58746829092102
| 15>   C           0.05368135551947      4.09677890033272     -0.32215607469735
| 16>   C           0.12701576466888      3.29797104446482      0.83315798930885
| 17>   C           0.09126489786025      1.89936928637235      0.72345089251828
| 18>   C          -1.42231182379047     -1.17925160622132      0.20001939081212
| 19>   C          -2.55202050513558     -1.63667055129500     -0.50782594927421
| 20>   C          -3.65731694965483     -2.14889379821135      0.18918033128911
| 21>   C          -3.63714770313208     -2.21185411228436      1.59302120399751
| 22>   C          -2.50736136951621     -1.76695453496974      2.30161281620194
| 23>   C          -1.40034680327617     -1.25273814653041      1.60817687813243
| 24>   H           4.02794269781581     -2.39305407274679     -0.31291401611520
| 25>   H           4.21513147213224     -0.96307136403637      0.74709154278746
| 26>   H           4.91191114305620     -0.95174235149610     -0.90264920939224
| 27>   H           2.58623840730424     -1.01080047178890     -1.90982498998789
| 28>   H           2.78225359439600      0.40489472327589     -0.86034294694835
| 29>   H           1.40967164420690     -2.25673761119631     -0.03156794230075
| 30>   H           1.55745604219700     -0.80612363871938      1.00538743512098
| 31>   H          -0.17937867737926      1.59380600729717     -2.67697689266307
| 32>   H          -0.11657308143681      4.12167522838605     -2.49159391680635
| 33>   H           0.08141349782005      5.19378026810888     -0.23316506978198
| 34>   H           0.21044744797845      3.76866163513257      1.82487424827560
| 35>   H           0.14013332482878      1.28309904423243      1.63449540010831
| 36>   H          -2.53283043815969     -1.58857221950748     -1.60790147503074
| 37>   H          -4.53868907399692     -2.50503217075714     -0.36617865557544
| 38>   H          -4.50377936214425     -2.61508623623123      2.13926283915947
| 39>   H          -2.48721458932695     -1.82485573021947      3.40078653688196
| 40>   H          -0.51681909892450     -0.91855812192391      2.17386624872509
| 41> **                         ****END OF INPUT****

CARTESIAN COORDINATES (ANGSTROEM)
---------------------------------
  C      4.040570   -1.282957   -0.301912
  C      2.733201   -0.705993   -0.852210
  C      1.501142   -1.148980   -0.050814
  P     -0.049070   -0.520810   -0.818766
  O     -0.201288   -0.859787   -2.293615
  C     -0.017222    1.295301   -0.545428
  C     -0.092815    2.097012   -1.701074
  C     -0.057291    3.496174   -1.587468
  C      0.053681    4.096779   -0.322156
  C      0.127016    3.297971    0.833158
  C      0.091265    1.899369    0.723451
  C     -1.422312   -1.179252    0.200019
  C     -2.552021   -1.636671   -0.507826
  C     -3.657317   -2.148894    0.189180
  C     -3.637148   -2.211854    1.593021
  C     -2.507361   -1.766955    2.301613
  C     -1.400347   -1.252738    1.608177
  H      4.027943   -2.393054   -0.312914
  H      4.215131   -0.963071    0.747092
  H      4.911911   -0.951742   -0.902649
  H      2.586238   -1.010800   -1.909825
  H      2.782254    0.404895   -0.860343
  H      1.409672   -2.256738   -0.031568
  H      1.557456   -0.806124    1.005387
  H     -0.179379    1.593806   -2.676977
  H     -0.116573    4.121675   -2.491594
  H      0.081413    5.193780   -0.233165
  H      0.210447    3.768662    1.824874
  H      0.140133    1.283099    1.634495
  H     -2.532830   -1.588572   -1.607901
  H     -4.538689   -2.505032   -0.366179
  H     -4.503779   -2.615086    2.139263
  H     -2.487215   -1.824856    3.400787
  H     -0.516819   -0.918558    2.173866

 Total Charge           Charge          ....    0
 Multiplicity           Mult            ....    1
 Number of Electrons    NEL             ....  130
 Basis Dimension        Dim             ....  635

ORBITAL ENERGIES
----------------

  NO   OCC          E(Eh)            E(eV)
   0   2.0000     -78.092272     -2124.9988
   1   2.0000     -19.566114      -532.4210
   2   2.0000     -10.565421      -287.4997
   3   2.0000     -10.563277      -287.4414
   4   2.0000     -10.560922      -287.3773
   5   2.0000     -10.559827      -287.3475
   6   2.0000     -10.559535      -287.3396
   7   2.0000     -10.558712      -287.3172
   8   2.0000     -10.558406      -287.3088
   9   2.0000     -10.557345      -287.2800
  10   2.0000     -10.556748      -287.2637
  11   2.0000     -10.556483      -287.2565
  12   2.0000     -10.555954      -287.2421
  13   2.0000     -10.554746      -287.2092
  14   2.0000     -10.551011      -287.1076
  15   2.0000     -10.543683      -286.9082
  16   2.0000     -10.533255      -286.6244
  17   2.0000      -6.898863      -187.7276
  18   2.0000      -5.016037      -136.4933
  19   2.0000      -5.015744      -136.4853
  20   2.0000      -5.014265      -136.4451
  21   2.0000      -1.060811       -28.8661
  22   2.0000      -0.965048       -26.2603
  23   2.0000      -0.961892       -26.1744
  24   2.0000      -0.893073       -24.3017
  25   2.0000      -0.859811       -23.3967
  26   2.0000      -0.849495       -23.1159
  27   2.0000      -0.847657       -23.0659
  28   2.0000      -0.845294       -23.0016
  29   2.0000      -0.790657       -21.5149
  30   2.0000      -0.717840       -19.5334
  31   2.0000      -0.697474       -18.9792
  32   2.0000      -0.692921       -18.8553
  33   2.0000      -0.685349       -18.6493
  34   2.0000      -0.673581       -18.3291
  35   2.0000      -0.630495       -17.1566
  36   2.0000      -0.598336       -16.2815
  37   2.0000      -0.581507       -15.8236
  38   2.0000      -0.542335       -14.7577
  39   2.0000      -0.530455       -14.4344
  40   2.0000      -0.528591       -14.3837
  41   2.0000      -0.524233       -14.2651
  42   2.0000      -0.522393       -14.2150
  43   2.0000      -0.499809       -13.6005
  44   2.0000      -0.495938       -13.4952
  45   2.0000      -0.494322       -13.4512
  46   2.0000      -0.491480       -13.3738
  47   2.0000      -0.478821       -13.0294
  48   2.0000      -0.459794       -12.5116
  49   2.0000      -0.450301       -12.2533
  50   2.0000      -0.446061       -12.1379
  51   2.0000      -0.441986       -12.0271
  52   2.0000      -0.423239       -11.5169
  53   2.0000      -0.411047       -11.1852
  54   2.0000      -0.408208       -11.1079
  55   2.0000      -0.404600       -11.0097
  56   2.0000      -0.403109       -10.9692
  57   2.0000      -0.398313       -10.8387
  58   2.0000      -0.391322       -10.6484
  59   2.0000      -0.336681        -9.1616
  60   2.0000      -0.333657        -9.0793
  61   2.0000      -0.319761        -8.7011
  62   2.0000      -0.318033        -8.6541
  63   2.0000      -0.314997        -8.5715
  64   2.0000      -0.310525        -8.4498
  65   0.0000      -0.014991        -0.4079
  66   0.0000       0.002846         0.0774
  67   0.0000       0.008514         0.2317
  68   0.0000       0.013561         0.3690
  69   0.0000       0.053419         1.4536

MULLIKEN ATOMIC CHARGES
-----------------------
   0 C :   -0.423419
   1 C :   -0.256621
   2 C :   -0.402716
   3 P :    0.643491
   4 O :   -0.609083
   5 C :   -0.100880
   6 C :   -0.129712
   7 C :   -0.140041
   8 C :   -0.134245
   9 C :   -0.168636
  10 C :   -0.152770
  11 C :   -0.012499
  12 C :   -0.161164
  13 C :   -0.133092
  14 C :   -0.138033
  15 C :   -0.166852
  16 C :   -0.186960
  17 H :    0.140406
  18 H :    0.134674
  19 H :    0.147508
  20 H :    0.173217
  21 H :    0.150776
  22 H :    0.179418
  23 H :    0.161825
  24 H :    0.198099
  25 H :    0.149868
  26 H :    0.148083
  27 H :    0.146384
  28 H :    0.141694
  29 H :    0.193066
  30 H :    0.150154
  31 H :    0.149038
  32 H :    0.146428
  33 H :    0.162595
Sum of atomic charges:   -0.0000000

LOEWDIN ATOMIC CHARGES
----------------------
   0 C :   -0.322638
   1 C :   -0.316073
   2 C :   -0.364309
   3 P :    0.652431
   4 O :   -0.315853
   5 C :   -0.232353
   6 C :   -0.118580
   7 C :   -0.136562
   8 C :   -0.133349
   9 C :   -0.141294
  10 C :   -0.134991
  11 C :   -0.230944
  12 C :   -0.114532
  13 C :   -0.135253
  14 C :   -0.132362
  15 C :   -0.141331
  16 C :   -0.139239
  17 H :    0.123400
  18 H :    0.121215
  19 H :    0.124715
  20 H :    0.149320
  21 H :    0.142848
  22 H :    0.149281
  23 H :    0.138746
  24 H :    0.162413
  25 H :    0.149368
  26 H :    0.148441
  27 H :    0.148320
  28 H :    0.145831
  29 H :    0.161975
  30 H :    0.149732
  31 H :    0.148724
  32 H :    0.148503
  33 H :    0.144399

  Mayer bond orders larger than 0.100000
B(  0-C ,  1-C ) :   0.9347 B(  0-C , 17-H ) :   0.9733 B(  0-C , 18-H ) :   0.9742
B(  0-C , 19-H ) :   0.9793 B(  1-C ,  2-C ) :   0.9200 B(  1-C , 20-H ) :   0.9687
B(  1-C , 21-H ) :   0.9643 B(  2-C ,  3-P ) :   0.9293 B(  2-C , 22-H ) :   0.9395
B(  2-C , 23-H ) :   0.9417 B(  3-P ,  4-O ) :   1.9335 B(  3-P ,  5-C ) :   0.9151
B(  3-P , 11-C ) :   0.8913 B(  5-C ,  6-C ) :   1.3966 B(  5-C , 10-C ) :   1.3492
B(  6-C ,  7-C ) :   1.4256 B(  6-C , 24-H ) :   0.9082 B(  7-C ,  8-C ) :   1.4402
B(  7-C , 25-H ) :   0.9474 B(  8-C ,  9-C ) :   1.4361 B(  8-C , 26-H ) :   0.9459
B(  9-C , 10-C ) :   1.5131 B(  9-C , 27-H ) :   0.9444 B( 10-C , 28-H ) :   0.9152
B( 11-C , 12-C ) :   1.4235 B( 11-C , 16-C ) :   1.3513 B( 12-C , 13-C ) :   1.4310
B( 12-C , 29-H ) :   0.9066 B( 13-C , 14-C ) :   1.4386 B( 13-C , 30-H ) :   0.9477
B( 14-C , 15-C ) :   1.4457 B( 14-C , 31-H ) :   0.9452 B( 15-C , 16-C ) :   1.5140
B( 15-C , 32-H ) :   0.9443 B( 16-C , 33-H ) :   0.9063

Dispersion correction           -0.001988660
FINAL SINGLE POINT ENERGY      -998.401970279781

DIPOLE MOMENT
-------------

Method             : SCF
Type of density    : Electron Density
Multiplicity       :   1
Irrep              :   0
Energy             :  -998.3999816195298536 Eh
Relativity type    :
Basis              : AO
                                X                 Y                 Z
Electronic contribution:    -11.474604971       1.551622209      -3.199122378
Nuclear contribution   :     11.543294108      -1.099833631       4.698124674
                        -----------------------------------------
Total Dipole Moment    :      0.068689136       0.451788578       1.499002296
                        -----------------------------------------
Magnitude (a.u.)       :      1.567111674
Magnitude (Debye)      :      3.983281320

Rotational constants in cm-1:             0.016817             0.010737             0.008422
Rotational constants in MHz :           504.147141           321.885867           252.488900

                             ****ORCA TERMINATED NORMALLY****
TOTAL RUN TIME: 0 days 0 hours 1 minutes 29 seconds 400 msec
