                         Program Version 6.0.0  -   RELEASE   -
|  1> ! RIJCOSX M062X def2-TZVP D3ZERO NormalSCF
|  2> %pal
|  3> nprocs 6
|  4> end
|  5>
|  6> * xyz 0 1
|  7>   C          -3.67160957649811     -4.42800549615050      0.86003852347959
|  8>   C          -2.73948045144333     -3.36442602484231      0.33210259093788
|  9>   C          -1.72100479366700     -2.82422176244273      1.14630027887978
| 10>   C          -0.83094917660904     -1.86013559544221      0.65028443618812
| 11>   C          -0.95179254479088     -1.40558036201307     -0.67749241623925
| 12>   C          -1.95551093326193     -1.94602798559167     -1.50574294778534
| 13>   C          -2.83814636100574     -2.91021292967253     -1.00123351946797
| 14>   P           0.12364534545715     -0.12281595932001     -1.41701539472317
| 15>   O           0.25695241610060     -0.24955729205053     -2.92560496320117
| 16>   C          -0.58973824640814      1.47740128698871     -0.88772469927612
| 17>   C          -1.30802536358126      1.65750517915874      0.31057019648846
| 18>   C          -1.79166201843842      2.92837546867289      0.65507787750967
| 19>   C          -1.58251334473625      4.04151925880757     -0.18705593488540
| 20>   C          -0.87439916243401      3.84201645839092     -1.39234224349708
| 21>   C          -0.38550024818624      2.57713493510107     -1.74478318036625
| 22>   C          -2.13541243960145      5.39960588454213      0.17169257074373
| 23>   C           1.72364806990859     -0.25736024704746     -0.53873961689665
| 24>   C           2.73836090947450     -0.99646836280028     -1.17854626022775
| 25>   C           3.98175706895146     -1.16707207718829     -0.55550382302166
| 26>   C           4.24744721411522     -0.60259259733474      0.71121623573086
| 27>   C           3.22618359523785      0.14610480762524      1.33451678740729
| 28>   C           1.97894692847481      0.32516406832887      0.71809693979607
| 29>   C           5.59982340802798     -0.76222748483562      1.36281328745188
| 30>   H          -3.25514011727505     -5.44329741059704      0.68135347498405
| 31>   H          -3.82959678906008     -4.32825313922240      1.95230074285172
| 32>   H          -4.66000891238814     -4.38922570773683      0.36067654843187
| 33>   H          -1.61979709999670     -3.17176741001842      2.18710005956598
| 34>   H          -0.02975339790278     -1.46963788419856      1.29696517192072
| 35>   H          -2.02281933441718     -1.60469385874107     -2.55046307228013
| 36>   H          -3.62127803164825     -3.32531758600457     -1.65603557746876
| 37>   H          -1.50315986505558      0.79898237594892      0.97189353756503
| 38>   H          -2.35091862766033      3.06002304182806      1.59536658252778
| 39>   H          -0.70768240485899      4.69663531891314     -2.06772167339001
| 40>   H           0.15216425712424      2.41891169705482     -2.69256905737723
| 41>   H          -2.19847955281910      5.53889538883415      1.26922002611106
| 42>   H          -3.16264507114970      5.52885852165276     -0.23370628459932
| 43>   H          -1.51513109251173      6.21659271459510     -0.24736233722800
| 44>   H           2.53714132518899     -1.42289206999844     -2.17363066515033
| 45>   H           4.76821843231469     -1.74885202956590     -1.06281650169804
| 46>   H           3.41573254324643      0.60344968635558      2.31902304208495
| 47>   H           1.20587334050902      0.93377878790904      1.21259713356855
| 48>   H           5.52762370642005     -0.73178812174644      2.46812493473106
| 49>   H           6.08271361038302     -1.71608024897997      1.07165336686015
| 50>   H           6.28592378647080      0.05755076283389      1.05710482296340
| 51> **                         ****END OF INPUT****

CARTESIAN COORDINATES (ANGSTROEM)
---------------------------------
  C     -3.671610   -4.428005    0.860039
  C     -2.739480   -3.364426    0.332103
  C     -1.721005   -2.824222    1.146300
  C     -0.830949   -1.860136    0.650284
  C     -0.951793   -1.405580   -0.677492
  C     -1.955511   -1.946028   -1.505743
  C     -2.838146   -2.910213   -1.001234
  P      0.123645   -0.122816   -1.417015
  O      0.256952   -0.249557   -2.925605
  C     -0.589738    1.477401   -0.887725
  C     -1.308025    1.657505    0.310570
  C     -1.791662    2.928375    0.655078
  C     -1.582513    4.041519   -0.187056
  C     -0.874399    3.842016   -1.392342
  C     -0.385500    2.577135   -1.744783
  C     -2.135412    5.399606    0.171693
  C      1.723648   -0.257360   -0.538740
  C      2.738361   -0.996468   -1.178546
  C      3.981757   -1.167072   -0.555504
  C      4.247447   -0.602593    0.711216
  C      3.226184    0.146105    1.334517
  C      1.978947    0.325164    0.718097
  C      5.599823   -0.762227    1.362813
  H     -3.255140   -5.443297    0.681353
  H     -3.829597   -4.328253    1.952301
  H     -4.660009   -4.389226    0.360677
  H     -1.619797   -3.171767    2.187100
  H     -0.029753   -1.469638    1.296965
  H     -2.022819   -1.604694   -2.550463
  H     -3.621278   -3.325318   -1.656036
  H     -1.503160    0.798982    0.971894
  H     -2.350919    3.060023    1.595367
  H     -0.707682    4.696635   -2.067722
  H      0.152164    2.418912   -2.692569
  H     -2.198480    5.538895    1.269220
  H     -3.162645    5.528859   -0.233706
  H     -1.515131    6.216593   -0.247362
  H      2.537141   -1.422892   -2.173631
  H      4.768218   -1.748852   -1.062817
  H      3.415733    0.603450    2.319023
  H      1.205873    0.933779    1.212597
  H      5.527624   -0.731788    2.468125
  H      6.082714   -1.716080    1.071653
  H      6.285924    0.057551    1.057105

 Total Charge           Charge          ....    0
 Multiplicity           Mult            ....    1
 Number of Electrons    NEL             ....  170
 Basis Dimension        Dim             ....  845

ORBITAL ENERGIES
----------------

  NO   OCC          E(Eh)            E(eV)
   0   2.0000     -78.091090     -2124.9666
   1   2.0000     -19.560798      -532.2764
   2   2.0000     -10.564370      -287.4711
   3   2.0000     -10.564314      -287.4696
   4   2.0000     -10.564302      -287.4693
   5   2.0000     -10.558237      -287.3042
   6   2.0000     -10.558213      -287.3036
   7   2.0000     -10.558166      -287.3023
   8   2.0000     -10.553193      -287.1670
   9   2.0000     -10.553145      -287.1657
  10   2.0000     -10.553076      -287.1638
  11   2.0000     -10.552103      -287.1373
  12   2.0000     -10.552047      -287.1358
  13   2.0000     -10.552009      -287.1348
  14   2.0000     -10.551784      -287.1286
  15   2.0000     -10.551722      -287.1270
  16   2.0000     -10.551705      -287.1265
  17   2.0000     -10.549649      -287.0705
  18   2.0000     -10.549608      -287.0694
  19   2.0000     -10.549587      -287.0689
  20   2.0000     -10.544807      -286.9388
  21   2.0000     -10.544786      -286.9382
  22   2.0000     -10.544780      -286.9381
  23   2.0000      -6.897254      -187.6838
  24   2.0000      -5.014388      -136.4484
  25   2.0000      -5.014379      -136.4482
  26   2.0000      -5.012705      -136.4026
  27   2.0000      -1.056473       -28.7481
  28   2.0000      -0.965806       -26.2809
  29   2.0000      -0.961814       -26.1723
  30   2.0000      -0.961762       -26.1709
  31   2.0000      -0.885872       -24.1058
  32   2.0000      -0.871188       -23.7062
  33   2.0000      -0.871132       -23.7047
  34   2.0000      -0.844738       -22.9865
  35   2.0000      -0.843335       -22.9483
  36   2.0000      -0.843304       -22.9475
  37   2.0000      -0.797963       -21.7137
  38   2.0000      -0.775691       -21.1076
  39   2.0000      -0.775632       -21.1060
  40   2.0000      -0.702298       -19.1105
  41   2.0000      -0.696009       -18.9394
  42   2.0000      -0.691606       -18.8195
  43   2.0000      -0.691543       -18.8179
  44   2.0000      -0.662949       -18.0398
  45   2.0000      -0.662896       -18.0383
  46   2.0000      -0.632391       -17.2082
  47   2.0000      -0.579090       -15.7578
  48   2.0000      -0.579041       -15.7565
  49   2.0000      -0.548445       -14.9240
  50   2.0000      -0.537364       -14.6224
  51   2.0000      -0.535371       -14.5682
  52   2.0000      -0.535338       -14.5673
  53   2.0000      -0.522774       -14.2254
  54   2.0000      -0.522707       -14.2236
  55   2.0000      -0.510046       -13.8790
  56   2.0000      -0.492196       -13.3933
  57   2.0000      -0.492166       -13.3925
  58   2.0000      -0.491564       -13.3761
  59   2.0000      -0.488484       -13.2923
  60   2.0000      -0.487270       -13.2593
  61   2.0000      -0.487223       -13.2580
  62   2.0000      -0.472655       -12.8616
  63   2.0000      -0.472573       -12.8594
  64   2.0000      -0.457203       -12.4411
  65   2.0000      -0.452116       -12.3027
  66   2.0000      -0.452103       -12.3024
  67   2.0000      -0.441079       -12.0024
  68   2.0000      -0.430021       -11.7015
  69   2.0000      -0.429944       -11.6994
  70   2.0000      -0.423358       -11.5201
  71   2.0000      -0.412952       -11.2370
  72   2.0000      -0.402387       -10.9495
  73   2.0000      -0.402370       -10.9490
  74   2.0000      -0.398496       -10.8436
  75   2.0000      -0.398406       -10.8412
  76   2.0000      -0.397146       -10.8069
  77   2.0000      -0.332581        -9.0500
  78   2.0000      -0.332485        -9.0474
  79   2.0000      -0.313696        -8.5361
  80   2.0000      -0.312583        -8.5058
  81   2.0000      -0.312549        -8.5049
  82   2.0000      -0.304371        -8.2823
  83   2.0000      -0.304231        -8.2785
  84   2.0000      -0.295673        -8.0457
  85   0.0000      -0.005776        -0.1572
  86   0.0000      -0.005594        -0.1522
  87   0.0000       0.004115         0.1120
  88   0.0000       0.008323         0.2265
  89   0.0000       0.015866         0.4317

MULLIKEN ATOMIC CHARGES
-----------------------
   0 C :   -0.479285
   1 C :    0.118167
   2 C :   -0.180240
   3 C :   -0.198946
   4 C :   -0.088943
   5 C :   -0.153993
   6 C :   -0.159968
   7 P :    0.628195
   8 O :   -0.601964
   9 C :   -0.093519
  10 C :   -0.197917
  11 C :   -0.178415
  12 C :    0.116154
  13 C :   -0.159646
  14 C :   -0.152486
  15 C :   -0.479552
  16 C :   -0.089858
  17 C :   -0.152207
  18 C :   -0.160744
  19 C :    0.117140
  20 C :   -0.179234
  21 C :   -0.201695
  22 C :   -0.479766
  23 H :    0.163641
  24 H :    0.147574
  25 H :    0.149908
  26 H :    0.148546
  27 H :    0.192655
  28 H :    0.183475
  29 H :    0.149552
  30 H :    0.193920
  31 H :    0.148672
  32 H :    0.149880
  33 H :    0.183162
  34 H :    0.147524
  35 H :    0.163570
  36 H :    0.149783
  37 H :    0.183491
  38 H :    0.149691
  39 H :    0.148410
  40 H :    0.194073
  41 H :    0.147574
  42 H :    0.149997
  43 H :    0.163625
Sum of atomic charges:   -0.0000000

LOEWDIN ATOMIC CHARGES
----------------------
   0 C :   -0.266389
   1 C :   -0.160633
   2 C :   -0.118674
   3 C :   -0.137418
   4 C :   -0.233290
   5 C :   -0.113201
   6 C :   -0.112743
   7 P :    0.682747
   8 O :   -0.310762
   9 C :   -0.233120
  10 C :   -0.137383
  11 C :   -0.118666
  12 C :   -0.160676
  13 C :   -0.112756
  14 C :   -0.113157
  15 C :   -0.266404
  16 C :   -0.233249
  17 C :   -0.113205
  18 C :   -0.112776
  19 C :   -0.160637
  20 C :   -0.118726
  21 C :   -0.137541
  22 C :   -0.266412
  23 H :    0.137349
  24 H :    0.131440
  25 H :    0.132295
  26 H :    0.149957
  27 H :    0.155661
  28 H :    0.160753
  29 H :    0.150979
  30 H :    0.155698
  31 H :    0.149941
  32 H :    0.150958
  33 H :    0.160673
  34 H :    0.131430
  35 H :    0.137310
  36 H :    0.132268
  37 H :    0.160779
  38 H :    0.150979
  39 H :    0.149964
  40 H :    0.155595
  41 H :    0.131421
  42 H :    0.132332
  43 H :    0.137290

  Mayer bond orders larger than 0.100000
B(  0-C ,  1-C ) :   0.9293 B(  0-C , 23-H ) :   0.9461 B(  0-C , 24-H ) :   0.9823
B(  0-C , 25-H ) :   0.9811 B(  1-C ,  2-C ) :   1.4070 B(  1-C ,  6-C ) :   1.3912
B(  2-C ,  3-C ) :   1.5163 B(  2-C , 26-H ) :   0.9264 B(  3-C ,  4-C ) :   1.3184
B(  3-C , 27-H ) :   0.9164 B(  4-C ,  5-C ) :   1.4307 B(  4-C ,  7-P ) :   0.9216
B(  5-C ,  6-C ) :   1.4673 B(  5-C , 28-H ) :   0.9124 B(  6-C , 29-H ) :   0.9339
B(  7-P ,  8-O ) :   1.9419 B(  7-P ,  9-C ) :   0.9229 B(  7-P , 16-C ) :   0.9224
B(  9-C , 10-C ) :   1.3184 B(  9-C , 14-C ) :   1.4301 B( 10-C , 11-C ) :   1.5162
B( 10-C , 30-H ) :   0.9154 B( 11-C , 12-C ) :   1.4062 B( 11-C , 31-H ) :   0.9261
B( 12-C , 13-C ) :   1.3918 B( 12-C , 15-C ) :   0.9298 B( 13-C , 14-C ) :   1.4683
B( 13-C , 32-H ) :   0.9333 B( 14-C , 33-H ) :   0.9125 B( 15-C , 34-H ) :   0.9823
B( 15-C , 35-H ) :   0.9461 B( 15-C , 36-H ) :   0.9811 B( 16-C , 17-C ) :   1.4305
B( 16-C , 21-C ) :   1.3181 B( 17-C , 18-C ) :   1.4676 B( 17-C , 37-H ) :   0.9121
B( 18-C , 19-C ) :   1.3912 B( 18-C , 38-H ) :   0.9338 B( 19-C , 20-C ) :   1.4072
B( 19-C , 22-C ) :   0.9296 B( 20-C , 21-C ) :   1.5156 B( 20-C , 39-H ) :   0.9267
B( 21-C , 40-H ) :   0.9157 B( 22-C , 41-H ) :   0.9822 B( 22-C , 42-H ) :   0.9811
B( 22-C , 43-H ) :   0.9462

Dispersion correction           -0.002917176
FINAL SINGLE POINT ENERGY     -1229.446167648823

DIPOLE MOMENT
-------------

Method             : SCF
Type of density    : Electron Density
Multiplicity       :   1
Irrep              :   0
Energy             : -1229.4432504731587414 Eh
Relativity type    :
Basis              : AO
                                X                 Y                 Z
Electronic contribution:      0.938440079      -0.942224953     -10.797835354
Nuclear contribution   :     -1.098578186       1.096644365      12.613154141
                        -----------------------------------------
Total Dipole Moment    :     -0.160138107       0.154419412       1.815318787
                        -----------------------------------------
Magnitude (a.u.)       :      1.828899086
Magnitude (Debye)      :      4.648692040

Rotational constants in cm-1:             0.007098             0.007070             0.004336
Rotational constants in MHz :           212.786056           211.958767           129.978820

                             ****ORCA TERMINATED NORMALLY****
TOTAL RUN TIME: 0 days 0 hours 2 minutes 50 seconds 521 msec
