                         Program Version 6.0.0  -   RELEASE   -
|  1> ! RIJONX B3LYP def2-SVP D3BJ TIGHTSCF Opt
|  2> %pal
|  3> nprocs 6
|  4> end
|  5>
|  6> * xyz 0 1
|  7> C      3.906602   -1.546212   -0.975495
|  8> C      2.920960   -2.478729   -0.668239
|  9> C      1.780685   -2.086757    0.040607
| 10> C      1.591211   -0.753031    0.439062
| 11> C      2.614025    0.164509    0.141276
| 12> C      3.755561   -0.224887   -0.567138
| 13> P      0.132872   -0.257722    1.426414
| 14> C     -0.199133    1.444748    0.851524
| 15> C     -0.388091    1.773247   -0.499513
| 16> C     -0.637395    3.091716   -0.888816
| 17> C     -0.701508    4.101729    0.067633
| 18> C     -0.515944    3.794602    1.413249
| 19> C     -0.266557    2.475658    1.802637
| 20> C     -1.273721   -1.129239    0.669021
| 21> C     -2.408045   -1.396367    1.434433
| 22> C     -3.485791   -2.053329    0.844201
| 23> C     -3.407022   -2.424418   -0.491147
| 24> C     -2.248316   -2.120939   -1.182995
| 25> N     -1.189157   -1.486591   -0.635215
| 26> H      4.792303   -1.849647   -1.526494
| 27> H      3.034359   -3.514192   -0.977354
| 28> H      1.032677   -2.842705    0.270297
| 29> H      2.539590    1.202235    0.459483
| 30> H      4.526063    0.507017   -0.794068
| 31> H     -0.338017    1.001549   -1.266293
| 32> H     -0.780299    3.325308   -1.940512
| 33> H     -0.895387    5.126929   -0.236078
| 34> H     -0.564425    4.580898    2.161922
| 35> H     -0.122782    2.262275    2.859840
| 36> H     -2.463550   -1.097164    2.476379
| 37> H     -4.378921   -2.269017    1.423415
| 38> H     -4.227983   -2.934735   -0.981619
| 39> H     -2.134863   -2.386738   -2.230009
| 40> **                         ****END OF INPUT****
 Total Charge           Charge          ....    0
 Multiplicity           Mult            ....    1
 Number of Electrons    NEL             ....  138
Dispersion correction           -0.082262181
FINAL SINGLE POINT ENERGY     -1051.303576443913
Dispersion correction             ... done (  0.1 sec)
Dispersion correction           -0.082565344
FINAL SINGLE POINT ENERGY     -1051.306676709098
Dispersion correction             ... done (  0.1 sec)
Dispersion correction           -0.082685489
FINAL SINGLE POINT ENERGY     -1051.307420127886
Dispersion correction             ... done (  0.1 sec)
FINAL SINGLE POINT ENERGY     -1051.307509821938
FINAL SINGLE POINT ENERGY     -1051.307675923344
FINAL SINGLE POINT ENERGY     -1051.307677062000
FINAL SINGLE POINT ENERGY     -1051.307723705977
FINAL SINGLE POINT ENERGY     -1051.307729898132
Dispersion correction             ... done (  0.1 sec)
Dispersion correction           -0.082508967
FINAL SINGLE POINT ENERGY     -1051.307733932563
Dispersion correction             ... done (  0.1 sec)
Dispersion correction           -0.082502306
FINAL SINGLE POINT ENERGY     -1051.307734388698
Dispersion correction             ... done (  0.1 sec)
                    ***********************HURRAY********************

CARTESIAN COORDINATES (ANGSTROEM)
---------------------------------
  C      3.829798   -1.602930   -0.932192
  C      2.853358   -2.521613   -0.533174
  C      1.724037   -2.089054    0.163387
  C      1.545342   -0.728284    0.465305
  C      2.533793    0.185304    0.067169
  C      3.666780   -0.249494   -0.626815
  P      0.117436   -0.199588    1.506417
  C     -0.189256    1.512515    0.875394
  C     -0.353037    1.801784   -0.491040
  C     -0.581273    3.113677   -0.907816
  C     -0.645899    4.151334    0.030642
  C     -0.483114    3.872594    1.389293
  C     -0.256883    2.556918    1.809159
  C     -1.274874   -1.111609    0.657059
  C     -2.309371   -1.623387    1.454870
  C     -3.373783   -2.287551    0.840174
  C     -3.363618   -2.425344   -0.547825
  C     -2.284610   -1.886428   -1.258914
  N     -1.270637   -1.247796   -0.676315
  H      4.713166   -1.941750   -1.479426
  H      2.970638   -3.582785   -0.768791
  H      0.968693   -2.818696    0.466253
  H      2.414861    1.247740    0.291054
  H      4.423601    0.477122   -0.934411
  H     -0.307563    0.986363   -1.215783
  H     -0.709275    3.330939   -1.971714
  H     -0.822805    5.178188   -0.300254
  H     -0.531501    4.679191    2.125540
  H     -0.128756    2.335674    2.872422
  H     -2.269057   -1.500148    2.539553
  H     -4.193978   -2.695508    1.436998
  H     -4.169992   -2.940483   -1.074832
  H     -2.242222   -1.976896   -2.350979

 Multiplicity           Mult            ....    1
 Number of Electrons    NEL             ....  138
 Basis Dimension        Dim             ....  340

ORBITAL ENERGIES
----------------

  NO   OCC          E(Eh)            E(eV)
   0   2.0000     -77.046986     -2096.5551
   1   2.0000     -14.326335      -389.8394
   2   2.0000     -10.227883      -278.3148
   3   2.0000     -10.225145      -278.2403
   4   2.0000     -10.213324      -277.9187
   5   2.0000     -10.204982      -277.6917
   6   2.0000     -10.203562      -277.6530
   7   2.0000     -10.189874      -277.2806
   8   2.0000     -10.189630      -277.2739
   9   2.0000     -10.187981      -277.2290
  10   2.0000     -10.187791      -277.2239
  11   2.0000     -10.186632      -277.1923
  12   2.0000     -10.184863      -277.1442
  13   2.0000     -10.184024      -277.1214
  14   2.0000     -10.182700      -277.0854
  15   2.0000     -10.182057      -277.0679
  16   2.0000     -10.181836      -277.0618
  17   2.0000     -10.181308      -277.0475
  18   2.0000     -10.181212      -277.0449
  19   2.0000      -6.543559      -178.0593
  20   2.0000      -4.709037      -128.1394
  21   2.0000      -4.708842      -128.1341
  22   2.0000      -4.706020      -128.0573
  23   2.0000      -0.939587       -25.5675
  24   2.0000      -0.844499       -22.9800
  25   2.0000      -0.836806       -22.7706
  26   2.0000      -0.800633       -21.7863
  27   2.0000      -0.768622       -20.9153
  28   2.0000      -0.743472       -20.2309
  29   2.0000      -0.733724       -19.9656
  30   2.0000      -0.729177       -19.8419
  31   2.0000      -0.726049       -19.7568
  32   2.0000      -0.651041       -17.7157
  33   2.0000      -0.629531       -17.1304
  34   2.0000      -0.608950       -16.5704
  35   2.0000      -0.595185       -16.1958
  36   2.0000      -0.590774       -16.0758
  37   2.0000      -0.583508       -15.8780
  38   2.0000      -0.554361       -15.0849
  39   2.0000      -0.517970       -14.0947
  40   2.0000      -0.508952       -13.8493
  41   2.0000      -0.495649       -13.4873
  42   2.0000      -0.485604       -13.2140
  43   2.0000      -0.457566       -12.4510
  44   2.0000      -0.449311       -12.2264
  45   2.0000      -0.446671       -12.1545
  46   2.0000      -0.440956       -11.9990
  47   2.0000      -0.435488       -11.8502
  48   2.0000      -0.419701       -11.4206
  49   2.0000      -0.418380       -11.3847
  50   2.0000      -0.415057       -11.2943
  51   2.0000      -0.410710       -11.1760
  52   2.0000      -0.400117       -10.8877
  53   2.0000      -0.392494       -10.6803
  54   2.0000      -0.375281       -10.2119
  55   2.0000      -0.363649        -9.8954
  56   2.0000      -0.361474        -9.8362
  57   2.0000      -0.341906        -9.3037
  58   2.0000      -0.339987        -9.2515
  59   2.0000      -0.332753        -9.0547
  60   2.0000      -0.321629        -8.7520
  61   2.0000      -0.296290        -8.0624
  62   2.0000      -0.273279        -7.4363
  63   2.0000      -0.272021        -7.4021
  64   2.0000      -0.257148        -6.9974
  65   2.0000      -0.250676        -6.8212
  66   2.0000      -0.249478        -6.7886
  67   2.0000      -0.242684        -6.6038
  68   2.0000      -0.216108        -5.8806
  69   0.0000      -0.044307        -1.2057
  70   0.0000      -0.027673        -0.7530
  71   0.0000      -0.017199        -0.4680
  72   0.0000      -0.008295        -0.2257
  73   0.0000      -0.005863        -0.1595

MULLIKEN ATOMIC CHARGES
-----------------------
   0 C :    0.020254
   1 C :    0.017948
   2 C :    0.013159
   3 C :   -0.099069
   4 C :   -0.002008
   5 C :    0.020848
   6 P :    0.370573
   7 C :   -0.178840
   8 C :    0.036207
   9 C :    0.023814
  10 C :    0.025835
  11 C :    0.017054
  12 C :    0.022288
  13 C :   -0.183189
  14 C :    0.050116
  15 C :    0.057781
  16 C :    0.000158
  17 C :    0.039628
  18 N :   -0.079421
  19 H :   -0.020585
  20 H :   -0.021356
  21 H :   -0.024177
  22 H :   -0.010198
  23 H :   -0.020601
  24 H :    0.002237
  25 H :   -0.018027
  26 H :   -0.015783
  27 H :   -0.016958
  28 H :   -0.021963
  29 H :   -0.007998
  30 H :    0.000263
  31 H :   -0.002664
  32 H :    0.004672
Sum of atomic charges:   -0.0000000

LOEWDIN ATOMIC CHARGES
----------------------
   0 C :   -0.029194
   1 C :   -0.025708
   2 C :   -0.028002
   3 C :   -0.163846
   4 C :   -0.033041
   5 C :   -0.025705
   6 P :    0.499599
   7 C :   -0.177681
   8 C :   -0.013279
   9 C :   -0.027449
  10 C :   -0.018985
  11 C :   -0.030178
  12 C :   -0.030726
  13 C :   -0.129219
  14 C :   -0.043919
  15 C :    0.003534
  16 C :   -0.040335
  17 C :    0.022252
  18 N :   -0.078866
  19 H :    0.024929
  20 H :    0.025394
  21 H :    0.021713
  22 H :    0.025988
  23 H :    0.025710
  24 H :    0.028586
  25 H :    0.026640
  26 H :    0.026577
  27 H :    0.026634
  28 H :    0.022774
  29 H :    0.029322
  30 H :    0.032751
  31 H :    0.031878
  32 H :    0.021854

  Mayer bond orders larger than 0.100000
B(  0-C ,  1-C ) :   1.3749 B(  0-C ,  5-C ) :   1.3865 B(  0-C , 19-H ) :   0.9842
B(  1-C ,  2-C ) :   1.4152 B(  1-C , 20-H ) :   0.9825 B(  2-C ,  3-C ) :   1.3752
B(  2-C , 21-H ) :   0.9788 B(  3-C ,  4-C ) :   1.3956 B(  3-C ,  6-P ) :   0.9136
B(  4-C ,  5-C ) :   1.3940 B(  4-C , 22-H ) :   0.9796 B(  5-C , 23-H ) :   0.9829
B(  6-P ,  7-C ) :   0.9367 B(  6-P , 13-C ) :   0.9015 B(  7-C ,  8-C ) :   1.3625
B(  7-C , 12-C ) :   1.3948 B(  8-C ,  9-C ) :   1.4006 B(  8-C , 24-H ) :   0.9710
B(  9-C , 10-C ) :   1.3638 B(  9-C , 25-H ) :   0.9849 B( 10-C , 11-C ) :   1.3954
B( 10-C , 26-H ) :   0.9843 B( 11-C , 12-C ) :   1.3757 B( 11-C , 27-H ) :   0.9852
B( 12-C , 28-H ) :   0.9856 B( 13-C , 14-C ) :   1.3674 B( 13-C , 18-N ) :   1.4616
B( 14-C , 15-C ) :   1.3991 B( 14-C , 29-H ) :   0.9710 B( 15-C , 16-C ) :   1.4164
B( 15-C , 30-H ) :   0.9791 B( 16-C , 17-C ) :   1.3624 B( 16-C , 31-H ) :   0.9714
B( 17-C , 18-N ) :   1.5368 B( 17-C , 32-H ) :   0.9731

Dispersion correction           -0.082501837
FINAL SINGLE POINT ENERGY     -1051.307734670107

DIPOLE MOMENT
-------------

Method             : SCF
Type of density    : Electron Density
Multiplicity       :   1
Irrep              :   0
Energy             : -1051.2252328326783299 Eh
Relativity type    :
Basis              : AO
                                X                 Y                 Z
Electronic contribution:     -0.888774787      -1.800874595       4.597250335
Nuclear contribution   :      0.070381307       1.592822323      -4.775605494
                        -----------------------------------------
Total Dipole Moment    :     -0.818393480      -0.208052271      -0.178355159
                        -----------------------------------------
Magnitude (a.u.)       :      0.863055154
Magnitude (Debye)      :      2.193711864

Rotational constants in cm-1:             0.012151             0.011796             0.007193
Rotational constants in MHz :           364.265924           353.620901           215.640186

                             ****ORCA TERMINATED NORMALLY****
TOTAL RUN TIME: 0 days 0 hours 8 minutes 7 seconds 104 msec
