                         Program Version 6.0.0  -   RELEASE   -
|  1> ! RIJCOSX M062X def2-TZVP D3ZERO NormalSCF
|  2> %pal
|  3> nprocs 6
|  4> end
|  5>
|  6> * xyz 0 1
|  7>   C           5.15790867531643      0.11140747154382      0.81935859132204
|  8>   C           3.75311993899555      0.05404128485437      0.26959176685121
|  9>   C           2.74823113776444     -0.69586775684740      0.91609166997898
| 10>   C           1.44858371136046     -0.77774279971717      0.39390599722118
| 11>   C           1.11506616120361     -0.10971891096028     -0.80228170154958
| 12>   C           2.11884594886528      0.63356454762405     -1.46052223107985
| 13>   C           3.41148526508437      0.72174862763981     -0.92632425482168
| 14>   P          -0.56938375036071     -0.12836698395207     -1.56810278517351
| 15>   C          -1.38677677328259     -1.46337111115207     -0.57690627452385
| 16>   C          -1.17964087389182     -2.79540433246702     -1.00034749790315
| 17>   C          -1.74891537454825     -3.86584597569995     -0.29470408480292
| 18>   C          -2.55106820713000     -3.61831734951429      0.83329136408441
| 19>   C          -2.77388162911167     -2.29640850603399      1.25265901348236
| 20>   C          -2.19312406377263     -1.22371022241817      0.55531617500739
| 21>   C          -1.32295373511109      1.38365206514178     -0.80750067630733
| 22>   C          -2.57494644116854      1.80235078561180     -1.31109080197120
| 23>   C          -3.21957130244105      2.92786479601769     -0.77635411813569
| 24>   C          -2.61085203409485      3.66352551656541      0.25569398689162
| 25>   C          -1.35900602121167      3.26311748968660      0.75146324659073
| 26>   C          -0.71836226602657      2.12814735770923      0.22664863465039
| 27>   H           5.16950438389564      0.00831493031011      1.92276243717117
| 28>   H           5.66271302543998      1.06178986238826      0.55448060995836
| 29>   H           5.77978003884803     -0.71367142769901      0.40830471503036
| 30>   H           2.98733420946790     -1.22332878057279      1.85394806746445
| 31>   H           0.68169066754920     -1.36107136247768      0.92530268293710
| 32>   H           1.87881289318288      1.15595072235714     -2.40100222888292
| 33>   H           4.17666385755721      1.31562601328687     -1.45196859123704
| 34>   H          -0.56092122720826     -2.99053436806223     -1.89142179387956
| 35>   H          -1.57372841947434     -4.89912348890133     -0.63231694074554
| 36>   H          -3.00606643454375     -4.45693698285648      1.38247421149227
| 37>   H          -3.40218409188145     -2.09603710426865      2.13455883430171
| 38>   H          -2.36256200684034     -0.19087942553208      0.89452209195507
| 39>   H          -3.04747869491850      1.23407152282254     -2.12888287633540
| 40>   H          -4.19819813150227      3.23865154485693     -1.17387022051735
| 41>   H          -3.11131021680162      4.55237683191438      0.66969683632609
| 42>   H          -0.87651533355560      3.83668355247087      1.55826109528900
| 43>   H           0.25770711434657      1.81345096633099      0.62526304986067
| 44> **                         ****END OF INPUT****

CARTESIAN COORDINATES (ANGSTROEM)
---------------------------------
  C      5.157909    0.111407    0.819359
  C      3.753120    0.054041    0.269592
  C      2.748231   -0.695868    0.916092
  C      1.448584   -0.777743    0.393906
  C      1.115066   -0.109719   -0.802282
  C      2.118846    0.633565   -1.460522
  C      3.411485    0.721749   -0.926324
  P     -0.569384   -0.128367   -1.568103
  C     -1.386777   -1.463371   -0.576906
  C     -1.179641   -2.795404   -1.000347
  C     -1.748915   -3.865846   -0.294704
  C     -2.551068   -3.618317    0.833291
  C     -2.773882   -2.296409    1.252659
  C     -2.193124   -1.223710    0.555316
  C     -1.322954    1.383652   -0.807501
  C     -2.574946    1.802351   -1.311091
  C     -3.219571    2.927865   -0.776354
  C     -2.610852    3.663526    0.255694
  C     -1.359006    3.263117    0.751463
  C     -0.718362    2.128147    0.226649
  H      5.169504    0.008315    1.922762
  H      5.662713    1.061790    0.554481
  H      5.779780   -0.713671    0.408305
  H      2.987334   -1.223329    1.853948
  H      0.681691   -1.361071    0.925303
  H      1.878813    1.155951   -2.401002
  H      4.176664    1.315626   -1.451969
  H     -0.560921   -2.990534   -1.891422
  H     -1.573728   -4.899123   -0.632317
  H     -3.006066   -4.456937    1.382474
  H     -3.402184   -2.096037    2.134559
  H     -2.362562   -0.190879    0.894522
  H     -3.047479    1.234072   -2.128883
  H     -4.198198    3.238652   -1.173870
  H     -3.111310    4.552377    0.669697
  H     -0.876515    3.836684    1.558261
  H      0.257707    1.813451    0.625263

 Total Charge           Charge          ....    0
 Multiplicity           Mult            ....    1
 Number of Electrons    NEL             ....  146
 Basis Dimension        Dim             ....  728

ORBITAL ENERGIES
----------------

  NO   OCC          E(Eh)            E(eV)
   0   2.0000     -78.029670     -2123.2953
   1   2.0000     -10.558702      -287.3169
   2   2.0000     -10.553497      -287.1752
   3   2.0000     -10.553260      -287.1688
   4   2.0000     -10.551118      -287.1105
   5   2.0000     -10.551001      -287.1073
   6   2.0000     -10.550856      -287.1034
   7   2.0000     -10.550758      -287.1007
   8   2.0000     -10.550735      -287.1001
   9   2.0000     -10.550010      -287.0804
  10   2.0000     -10.549904      -287.0775
  11   2.0000     -10.549796      -287.0745
  12   2.0000     -10.549511      -287.0668
  13   2.0000     -10.549452      -287.0652
  14   2.0000     -10.548490      -287.0390
  15   2.0000     -10.548447      -287.0378
  16   2.0000     -10.548075      -287.0277
  17   2.0000     -10.546811      -286.9933
  18   2.0000     -10.546195      -286.9766
  19   2.0000     -10.541871      -286.8589
  20   2.0000      -6.845665      -186.2800
  21   2.0000      -4.960297      -134.9766
  22   2.0000      -4.959881      -134.9652
  23   2.0000      -4.959874      -134.9650
  24   2.0000      -0.961871       -26.1738
  25   2.0000      -0.954727       -25.9794
  26   2.0000      -0.952433       -25.9170
  27   2.0000      -0.876884       -23.8612
  28   2.0000      -0.851269       -23.1642
  29   2.0000      -0.840570       -22.8731
  30   2.0000      -0.839642       -22.8478
  31   2.0000      -0.838681       -22.8217
  32   2.0000      -0.833376       -22.6773
  33   2.0000      -0.779643       -21.2152
  34   2.0000      -0.720986       -19.6190
  35   2.0000      -0.688639       -18.7388
  36   2.0000      -0.686186       -18.6721
  37   2.0000      -0.685300       -18.6480
  38   2.0000      -0.673852       -18.3364
  39   2.0000      -0.662004       -18.0140
  40   2.0000      -0.630834       -17.1659
  41   2.0000      -0.588000       -16.0003
  42   2.0000      -0.579937       -15.7809
  43   2.0000      -0.552739       -15.0408
  44   2.0000      -0.532356       -14.4862
  45   2.0000      -0.523498       -14.2451
  46   2.0000      -0.521670       -14.1954
  47   2.0000      -0.515301       -14.0221
  48   2.0000      -0.513257       -13.9664
  49   2.0000      -0.507214       -13.8020
  50   2.0000      -0.489075       -13.3084
  51   2.0000      -0.485883       -13.2215
  52   2.0000      -0.484753       -13.1908
  53   2.0000      -0.483259       -13.1502
  54   2.0000      -0.469784       -12.7835
  55   2.0000      -0.460803       -12.5391
  56   2.0000      -0.449735       -12.2379
  57   2.0000      -0.437811       -11.9134
  58   2.0000      -0.434142       -11.8136
  59   2.0000      -0.425673       -11.5832
  60   2.0000      -0.420554       -11.4438
  61   2.0000      -0.402377       -10.9492
  62   2.0000      -0.402125       -10.9424
  63   2.0000      -0.396615       -10.7924
  64   2.0000      -0.374772       -10.1981
  65   2.0000      -0.374262       -10.1842
  66   2.0000      -0.331367        -9.0170
  67   2.0000      -0.314323        -8.5532
  68   2.0000      -0.312150        -8.4940
  69   2.0000      -0.308332        -8.3901
  70   2.0000      -0.304239        -8.2788
  71   2.0000      -0.301014        -8.1910
  72   2.0000      -0.263537        -7.1712
  73   0.0000      -0.000341        -0.0093
  74   0.0000       0.000209         0.0057
  75   0.0000       0.001163         0.0317
  76   0.0000       0.018288         0.4977
  77   0.0000       0.023101         0.6286

MULLIKEN ATOMIC CHARGES
-----------------------
   0 C :   -0.478072
   1 C :    0.118496
   2 C :   -0.188052
   3 C :   -0.139639
   4 C :   -0.122227
   5 C :   -0.135410
   6 C :   -0.177530
   7 P :    0.122966
   8 C :   -0.089585
   9 C :   -0.148311
  10 C :   -0.145572
  11 C :   -0.137042
  12 C :   -0.159837
  13 C :   -0.137906
  14 C :   -0.097842
  15 C :   -0.147965
  16 C :   -0.144700
  17 C :   -0.135898
  18 C :   -0.164702
  19 C :   -0.126885
  20 H :    0.147347
  21 H :    0.147231
  22 H :    0.161455
  23 H :    0.147232
  24 H :    0.183275
  25 H :    0.153247
  26 H :    0.146428
  27 H :    0.154401
  28 H :    0.145607
  29 H :    0.145326
  30 H :    0.145593
  31 H :    0.183781
  32 H :    0.154914
  33 H :    0.145503
  34 H :    0.145409
  35 H :    0.145362
  36 H :    0.183601
Sum of atomic charges:   -0.0000000

LOEWDIN ATOMIC CHARGES
----------------------
   0 C :   -0.268251
   1 C :   -0.167287
   2 C :   -0.119258
   3 C :   -0.135702
   4 C :   -0.282019
   5 C :   -0.141472
   6 C :   -0.119974
   7 P :    0.698584
   8 C :   -0.275913
   9 C :   -0.142479
  10 C :   -0.144260
  11 C :   -0.142397
  12 C :   -0.143356
  13 C :   -0.137752
  14 C :   -0.276684
  15 C :   -0.143298
  16 C :   -0.144444
  17 C :   -0.142256
  18 C :   -0.143203
  19 C :   -0.136623
  20 H :    0.131294
  21 H :    0.131184
  22 H :    0.136025
  23 H :    0.149567
  24 H :    0.158186
  25 H :    0.150705
  26 H :    0.149537
  27 H :    0.150636
  28 H :    0.147655
  29 H :    0.146819
  30 H :    0.147695
  31 H :    0.157860
  32 H :    0.150684
  33 H :    0.147669
  34 H :    0.146820
  35 H :    0.147636
  36 H :    0.158071

  Mayer bond orders larger than 0.100000
B(  0-C ,  1-C ) :   0.9299 B(  0-C , 20-H ) :   0.9818 B(  0-C , 21-H ) :   0.9816
B(  0-C , 22-H ) :   0.9476 B(  1-C ,  2-C ) :   1.3987 B(  1-C ,  6-C ) :   1.3899
B(  2-C ,  3-C ) :   1.4954 B(  2-C , 23-H ) :   0.9257 B(  3-C ,  4-C ) :   1.3265
B(  3-C , 24-H ) :   0.9291 B(  4-C ,  5-C ) :   1.3945 B(  4-C ,  7-P ) :   0.9361
B(  5-C ,  6-C ) :   1.4855 B(  5-C , 25-H ) :   0.9370 B(  6-C , 26-H ) :   0.9352
B(  7-P ,  8-C ) :   0.9349 B(  7-P , 14-C ) :   0.9331 B(  8-C ,  9-C ) :   1.3983
B(  8-C , 13-C ) :   1.3403 B(  9-C , 10-C ) :   1.4627 B(  9-C , 27-H ) :   0.9353
B( 10-C , 11-C ) :   1.4258 B( 10-C , 28-H ) :   0.9474 B( 11-C , 12-C ) :   1.4401
B( 11-C , 29-H ) :   0.9469 B( 12-C , 13-C ) :   1.4586 B( 12-C , 30-H ) :   0.9444
B( 13-C , 31-H ) :   0.9266 B( 14-C , 15-C ) :   1.3947 B( 14-C , 19-C ) :   1.3458
B( 15-C , 16-C ) :   1.4595 B( 15-C , 32-H ) :   0.9362 B( 16-C , 17-C ) :   1.4264
B( 16-C , 33-H ) :   0.9476 B( 17-C , 18-C ) :   1.4390 B( 17-C , 34-H ) :   0.9469
B( 18-C , 19-C ) :   1.4609 B( 18-C , 35-H ) :   0.9441 B( 19-C , 36-H ) :   0.9250

Dispersion correction           -0.002233575
FINAL SINGLE POINT ENERGY     -1075.552142009255

DIPOLE MOMENT
-------------

Method             : SCF
Type of density    : Electron Density
Multiplicity       :   1
Irrep              :   0
Energy             : -1075.5499084338746343 Eh
Relativity type    :
Basis              : AO
                                X                 Y                 Z
Electronic contribution:     -7.708072653      -0.646249276      -7.403369620
Nuclear contribution   :      7.947798002       0.686079142       8.018932048
                        -----------------------------------------
Total Dipole Moment    :      0.239725350       0.039829866       0.615562427
                        -----------------------------------------
Magnitude (a.u.)       :      0.661794351
Magnitude (Debye)      :      1.682147559

Rotational constants in cm-1:             0.011702             0.008922             0.005943
Rotational constants in MHz :           350.813414           267.464288           178.177336

                             ****ORCA TERMINATED NORMALLY****
TOTAL RUN TIME: 0 days 0 hours 2 minutes 7 seconds 652 msec
