                         Program Version 6.0.0  -   RELEASE   -
|  1> ! RI BP86 def2-SVP D3BJ TIGHTSCF Opt
|  2> %pal
|  3> nprocs 6
|  4> end
|  5>
|  6> * xyz 0 1
|  7> C     -3.296128   -2.182510   -0.321687
|  8> C     -2.419882   -1.204959   -0.802917
|  9> C     -1.024629   -1.346316   -0.679951
| 10> C     -0.537286   -2.532854   -0.109952
| 11> C     -1.414955   -3.508041    0.370406
| 12> C     -2.791989   -3.334886    0.273322
| 13> Cl    -0.785974   -4.942877    1.084179
| 14> P      0.078191   -0.062011   -1.358299
| 15> C      1.637659   -0.239119   -0.428618
| 16> C      2.826956   -0.394813   -1.159689
| 17> C      4.051699   -0.530441   -0.503617
| 18> C      4.116604   -0.514284    0.886343
| 19> C      2.946837   -0.360681    1.626059
| 20> C      1.718202   -0.223242    0.973017
| 21> Cl     5.494913   -0.719633   -1.422286
| 22> C     -0.551685    1.508963   -0.667627
| 23> C     -1.249316    1.616285    0.544604
| 24> C     -1.692310    2.858985    1.002619
| 25> C     -1.449937    4.015357    0.267389
| 26> C     -0.756454    3.928998   -0.936525
| 27> C     -0.311277    2.686744   -1.398202
| 28> Cl    -2.545958    2.960765    2.494053
| 29> H     -4.370224   -2.044128   -0.418818
| 30> H     -2.846216   -0.323241   -1.280410
| 31> H      0.531490   -2.719665   -0.039849
| 32> H     -3.472789   -4.095413    0.645730
| 33> H      2.805824   -0.410978   -2.247497
| 34> H      5.070082   -0.620329    1.396548
| 35> H      2.987774   -0.347763    2.712645
| 36> H      0.824560   -0.112362    1.582145
| 37> H     -1.452212    0.736794    1.149841
| 38> H     -1.794531    4.981315    0.626236
| 39> H     -0.558741    4.826644   -1.517308
| 40> H      0.231700    2.649698   -2.341885
| 41> **                         ****END OF INPUT****
 Total Charge           Charge          ....    0
 Multiplicity           Mult            ....    1
 Number of Electrons    NEL             ....  186
Dispersion correction           -0.093259551
FINAL SINGLE POINT ENERGY     -2414.319407487480
Dispersion correction             ... done (  0.1 sec)
Dispersion correction           -0.093735093
FINAL SINGLE POINT ENERGY     -2414.325512505098
Dispersion correction             ... done (  0.1 sec)
Dispersion correction           -0.093785885
FINAL SINGLE POINT ENERGY     -2414.326792324384
Dispersion correction             ... done (  0.1 sec)
FINAL SINGLE POINT ENERGY     -2414.327351485606
FINAL SINGLE POINT ENERGY     -2414.328042099645
FINAL SINGLE POINT ENERGY     -2414.328514427740
FINAL SINGLE POINT ENERGY     -2414.328798922898
FINAL SINGLE POINT ENERGY     -2414.328859437325
FINAL SINGLE POINT ENERGY     -2414.328882123709
Dispersion correction             ... done (  0.1 sec)
Dispersion correction           -0.094417934
FINAL SINGLE POINT ENERGY     -2414.328886442239
Dispersion correction             ... done (  0.1 sec)
Dispersion correction           -0.094415926
FINAL SINGLE POINT ENERGY     -2414.328888562350
Dispersion correction             ... done (  0.1 sec)
                    ***********************HURRAY********************

CARTESIAN COORDINATES (ANGSTROEM)
---------------------------------
  C     -3.044636   -2.494232   -0.918182
  C     -2.211813   -1.481787   -1.417233
  C     -0.958975   -1.230661   -0.815606
  C     -0.541667   -2.018041    0.275737
  C     -1.382452   -3.036858    0.753174
  C     -2.636286   -3.283680    0.169175
  Cl    -0.857201   -4.012152    2.109851
  P      0.052063    0.154459   -1.517598
  C      1.656585   -0.109783   -0.627819
  C      2.548450   -1.040661   -1.202674
  C      3.769106   -1.315961   -0.568078
  C      4.132866   -0.662516    0.622797
  C      3.247313    0.272616    1.179420
  C      2.014490    0.549780    0.565913
  Cl     4.863259   -2.484114   -1.278039
  C     -0.634557    1.591486   -0.570045
  C     -1.513004    1.448560    0.522221
  C     -1.979175    2.594284    1.187630
  C     -1.582552    3.882572    0.791129
  C     -0.706589    4.016258   -0.298541
  C     -0.242091    2.883624   -0.983607
  Cl    -3.072293    2.409032    2.544033
  H     -4.023400   -2.682044   -1.385451
  H     -2.534311   -0.875696   -2.278442
  H      0.427903   -1.841883    0.762009
  H     -3.274551   -4.086687    0.563359
  H      2.293461   -1.557614   -2.140179
  H      5.098049   -0.888321    1.097147
  H      3.522870    0.788492    2.112068
  H      1.324792    1.275957    1.019570
  H     -1.832902    0.454209    0.863581
  H     -1.962833    4.762023    1.329261
  H     -0.393305    5.021162   -0.620596
  H      0.433387    2.998179   -1.845985

 Multiplicity           Mult            ....    1
 Number of Electrons    NEL             ....  186
 Basis Dimension        Dim             ....  384

ORBITAL ENERGIES
----------------

  NO   OCC          E(Eh)            E(eV)
   0   2.0000    -100.705505     -2740.3361
   1   2.0000    -100.705094     -2740.3249
   2   2.0000    -100.704301     -2740.3033
   3   2.0000     -76.361806     -2077.9104
   4   2.0000      -9.982295      -271.6321
   5   2.0000      -9.981758      -271.6174
   6   2.0000      -9.981203      -271.6023
   7   2.0000      -9.943439      -270.5747
   8   2.0000      -9.942892      -270.5598
   9   2.0000      -9.942663      -270.5536
  10   2.0000      -9.940057      -270.4827
  11   2.0000      -9.939844      -270.4769
  12   2.0000      -9.939405      -270.4650
  13   2.0000      -9.938997      -270.4538
  14   2.0000      -9.938722      -270.4464
  15   2.0000      -9.938679      -270.4452
  16   2.0000      -9.938300      -270.4349
  17   2.0000      -9.938237      -270.4332
  18   2.0000      -9.937948      -270.4253
  19   2.0000      -9.937090      -270.4020
  20   2.0000      -9.936188      -270.3774
  21   2.0000      -9.934434      -270.3297
  22   2.0000      -9.190620      -250.0895
  23   2.0000      -9.190214      -250.0784
  24   2.0000      -9.189419      -250.0568
  25   2.0000      -7.021544      -191.0659
  26   2.0000      -7.021166      -191.0556
  27   2.0000      -7.020350      -191.0334
  28   2.0000      -7.010359      -190.7616
  29   2.0000      -7.009929      -190.7499
  30   2.0000      -7.009748      -190.7449
  31   2.0000      -7.009332      -190.7336
  32   2.0000      -7.009156      -190.7288
  33   2.0000      -7.008541      -190.7121
  34   2.0000      -6.330101      -172.2508
  35   2.0000      -4.551530      -123.8534
  36   2.0000      -4.551525      -123.8533
  37   2.0000      -4.547948      -123.7559
  38   2.0000      -0.817961       -22.2579
  39   2.0000      -0.816045       -22.2057
  40   2.0000      -0.815259       -22.1843
  41   2.0000      -0.772521       -21.0214
  42   2.0000      -0.764110       -20.7925
  43   2.0000      -0.763640       -20.7797
  44   2.0000      -0.710125       -19.3235
  45   2.0000      -0.688377       -18.7317
  46   2.0000      -0.684660       -18.6305
  47   2.0000      -0.670143       -18.2355
  48   2.0000      -0.667447       -18.1621
  49   2.0000      -0.664854       -18.0916
  50   2.0000      -0.605273       -16.4703
  51   2.0000      -0.563765       -15.3408
  52   2.0000      -0.559554       -15.2263
  53   2.0000      -0.553052       -15.0493
  54   2.0000      -0.546225       -14.8635
  55   2.0000      -0.539191       -14.6721
  56   2.0000      -0.508195       -13.8287
  57   2.0000      -0.477187       -12.9849
  58   2.0000      -0.476595       -12.9688
  59   2.0000      -0.459255       -12.4970
  60   2.0000      -0.434746       -11.8300
  61   2.0000      -0.433834       -11.8052
  62   2.0000      -0.433330       -11.7915
  63   2.0000      -0.416838       -11.3427
  64   2.0000      -0.416442       -11.3320
  65   2.0000      -0.409749       -11.1498
  66   2.0000      -0.395749       -10.7689
  67   2.0000      -0.394886       -10.7454
  68   2.0000      -0.394346       -10.7307
  69   2.0000      -0.383890       -10.4462
  70   2.0000      -0.383463       -10.4345
  71   2.0000      -0.363836        -9.9005
  72   2.0000      -0.361395        -9.8341
  73   2.0000      -0.361170        -9.8279
  74   2.0000      -0.348130        -9.4731
  75   2.0000      -0.331642        -9.0244
  76   2.0000      -0.330361        -8.9896
  77   2.0000      -0.329689        -8.9713
  78   2.0000      -0.313432        -8.5289
  79   2.0000      -0.310638        -8.4529
  80   2.0000      -0.304723        -8.2919
  81   2.0000      -0.301764        -8.2114
  82   2.0000      -0.300371        -8.1735
  83   2.0000      -0.277229        -7.5438
  84   2.0000      -0.274551        -7.4709
  85   2.0000      -0.273946        -7.4545
  86   2.0000      -0.262552        -7.1444
  87   2.0000      -0.253117        -6.8877
  88   2.0000      -0.250058        -6.8044
  89   2.0000      -0.233322        -6.3490
  90   2.0000      -0.229497        -6.2449
  91   2.0000      -0.227499        -6.1906
  92   2.0000      -0.208944        -5.6857
  93   0.0000      -0.074503        -2.0273
  94   0.0000      -0.073650        -2.0041
  95   0.0000      -0.069585        -1.8935
  96   0.0000      -0.059441        -1.6175
  97   0.0000      -0.054586        -1.4854

MULLIKEN ATOMIC CHARGES
-----------------------
   0 C :   -0.011963
   1 C :    0.035085
   2 C :   -0.186096
   3 C :    0.044806
   4 C :    0.020078
   5 C :    0.029644
   6 Cl:   -0.080566
   7 P :    0.314942
   8 C :   -0.185824
   9 C :    0.049328
  10 C :    0.017512
  11 C :    0.033624
  12 C :   -0.007564
  13 C :    0.023408
  14 Cl:   -0.081774
  15 C :   -0.182793
  16 C :    0.044627
  17 C :    0.018949
  18 C :    0.028003
  19 C :   -0.013168
  20 C :    0.033115
  21 Cl:   -0.081090
  22 H :    0.015532
  23 H :    0.009328
  24 H :    0.013579
  25 H :    0.006504
  26 H :    0.005988
  27 H :    0.006966
  28 H :    0.013600
  29 H :    0.020919
  30 H :    0.014177
  31 H :    0.006099
  32 H :    0.015297
  33 H :    0.009725
Sum of atomic charges:   -0.0000000

LOEWDIN ATOMIC CHARGES
----------------------
   0 C :   -0.020909
   1 C :   -0.038239
   2 C :   -0.168433
   3 C :   -0.052560
   4 C :   -0.117402
   5 C :   -0.042782
   6 Cl:    0.118833
   7 P :    0.511281
   8 C :   -0.167876
   9 C :   -0.051260
  10 C :   -0.117950
  11 C :   -0.042892
  12 C :   -0.020489
  13 C :   -0.040182
  14 Cl:    0.119262
  15 C :   -0.167455
  16 C :   -0.052388
  17 C :   -0.118066
  18 C :   -0.044046
  19 C :   -0.021965
  20 C :   -0.038526
  21 Cl:    0.118017
  22 H :    0.039164
  23 H :    0.034180
  24 H :    0.039269
  25 H :    0.039292
  26 H :    0.036745
  27 H :    0.039260
  28 H :    0.038904
  29 H :    0.037518
  30 H :    0.039414
  31 H :    0.039024
  32 H :    0.038954
  33 H :    0.034304

  Mayer bond orders larger than 0.100000
B(  0-C ,  1-C ) :   1.3931 B(  0-C ,  5-C ) :   1.3623 B(  0-C , 22-H ) :   0.9714
B(  1-C ,  2-C ) :   1.3606 B(  1-C , 23-H ) :   0.9736 B(  2-C ,  3-C ) :   1.3604
B(  2-C ,  7-P ) :   0.9339 B(  3-C ,  4-C ) :   1.3661 B(  3-C , 24-H ) :   0.9686
B(  4-C ,  5-C ) :   1.3852 B(  4-C ,  6-Cl) :   0.9955 B(  5-C , 25-H ) :   0.9754
B(  7-P ,  8-C ) :   0.9310 B(  7-P , 15-C ) :   0.9320 B(  8-C ,  9-C ) :   1.3394
B(  8-C , 13-C ) :   1.3819 B(  9-C , 10-C ) :   1.3947 B(  9-C , 26-H ) :   0.9715
B( 10-C , 11-C ) :   1.3781 B( 10-C , 14-Cl) :   0.9883 B( 11-C , 12-C ) :   1.3678
B( 11-C , 27-H ) :   0.9762 B( 12-C , 13-C ) :   1.3716 B( 12-C , 28-H ) :   0.9705
B( 13-C , 29-H ) :   0.9685 B( 15-C , 16-C ) :   1.3616 B( 15-C , 20-C ) :   1.3610
B( 16-C , 17-C ) :   1.3660 B( 16-C , 30-H ) :   0.9687 B( 17-C , 18-C ) :   1.3848
B( 17-C , 21-Cl) :   0.9952 B( 18-C , 19-C ) :   1.3618 B( 18-C , 31-H ) :   0.9756
B( 19-C , 20-C ) :   1.3931 B( 19-C , 32-H ) :   0.9715 B( 20-C , 33-H ) :   0.9737

Dispersion correction           -0.094417671
FINAL SINGLE POINT ENERGY     -2414.328888884125

DIPOLE MOMENT
-------------

Method             : SCF
Type of density    : Electron Density
Multiplicity       :   1
Irrep              :   0
Energy             : -2414.2344712133494795 Eh
Relativity type    :
Basis              : AO
                                X                 Y                 Z
Electronic contribution:      2.553351781     -10.106907544       4.579921845
Nuclear contribution   :     -2.735925521      10.759928355      -4.639222930
                        -----------------------------------------
Total Dipole Moment    :     -0.182573740       0.653020811      -0.059301085
                        -----------------------------------------
Magnitude (a.u.)       :      0.680651136
Magnitude (Debye)      :      1.730077696

Rotational constants in cm-1:             0.007543             0.004912             0.003659
Rotational constants in MHz :           226.127664           147.261998           109.696564

                             ****ORCA TERMINATED NORMALLY****
TOTAL RUN TIME: 0 days 0 hours 3 minutes 34 seconds 317 msec
