                         Program Version 6.0.0  -   RELEASE   -
|  1> ! RIJONX B3LYP def2-SVP D3BJ TIGHTSCF Opt
|  2> %pal
|  3> nprocs 6
|  4> end
|  5>
|  6> * xyz 0 1
|  7> C     -0.698366   -2.421055   -1.635688
|  8> C     -1.190981   -3.686835   -1.301863
|  9> C     -1.868795   -3.868670   -0.101375
| 10> C     -2.056891   -2.796557    0.765082
| 11> C     -1.562564   -1.530736    0.428945
| 12> C     -0.872772   -1.320769   -0.775245
| 13> P     -0.194841    0.286292   -1.302955
| 14> C      1.555433    0.216422   -0.800587
| 15> C      2.423215    1.202669   -1.306233
| 16> C      3.780320    1.215771   -0.967999
| 17> C      4.289289    0.238459   -0.119777
| 18> C      3.452953   -0.749039    0.391047
| 19> C      2.094951   -0.759803    0.051398
| 20> Cl     5.956737    0.251256    0.300201
| 21> C     -0.940584    1.483326   -0.148966
| 22> C     -2.231063    1.962272   -0.443382
| 23> C     -2.870003    2.883537    0.392880
| 24> C     -2.223880    3.341317    1.535960
| 25> C     -0.946901    2.885540    1.847643
| 26> C     -0.309643    1.963166    1.009326
| 27> Cl    -3.005903    4.472782    2.568021
| 28> Cl    -2.474944   -5.423284    0.314181
| 29> H     -0.171022   -2.303898   -2.581626
| 30> H     -1.041600   -4.520023   -1.983350
| 31> H     -2.586858   -2.933935    1.704111
| 32> H     -1.726683   -0.720448    1.134815
| 33> H      2.048395    1.978710   -1.972481
| 34> H      4.428567    1.989251   -1.371047
| 35> H      3.846682   -1.515420    1.053730
| 36> H      1.474457   -1.545596    0.474800
| 37> H     -2.757680    1.618812   -1.332948
| 38> H     -3.867098    3.236400    0.143419
| 39> H     -0.437766    3.241324    2.739669
| 40> H      0.685839    1.628762    1.290296
| 41> **                         ****END OF INPUT****
 Total Charge           Charge          ....    0
 Multiplicity           Mult            ....    1
 Number of Electrons    NEL             ....  186
Dispersion correction           -0.096345999
FINAL SINGLE POINT ENERGY     -2413.510818571652
Dispersion correction             ... done (  0.1 sec)
Dispersion correction           -0.097036489
FINAL SINGLE POINT ENERGY     -2413.513658347832
Dispersion correction             ... done (  0.1 sec)
Dispersion correction           -0.097190573
FINAL SINGLE POINT ENERGY     -2413.514327718633
Dispersion correction             ... done (  0.1 sec)
FINAL SINGLE POINT ENERGY     -2413.514448824750
Dispersion correction             ... done (  0.1 sec)
Dispersion correction           -0.097075854
FINAL SINGLE POINT ENERGY     -2413.514476078369
Dispersion correction             ... done (  0.1 sec)
Dispersion correction           -0.097110541
FINAL SINGLE POINT ENERGY     -2413.514481787002
Dispersion correction             ... done (  0.1 sec)
                    ***********************HURRAY********************

CARTESIAN COORDINATES (ANGSTROEM)
---------------------------------
  C     -0.722772   -2.415399   -1.673185
  C     -1.176676   -3.677219   -1.289562
  C     -1.812086   -3.826084   -0.052715
  C     -1.990955   -2.730258    0.795333
  C     -1.520161   -1.475087    0.402952
  C     -0.876277   -1.299771   -0.831850
  P     -0.213353    0.315322   -1.437994
  C      1.537792    0.227267   -0.853696
  C      2.427714    1.201309   -1.339001
  C      3.763528    1.223101   -0.938549
  C      4.225722    0.244500   -0.052842
  C      3.365522   -0.743919    0.431885
  C      2.027162   -0.745475    0.031767
  Cl     5.898835    0.255201    0.447428
  C     -0.942939    1.486265   -0.208159
  C     -2.235119    1.973410   -0.471350
  C     -2.869928    2.849616    0.408644
  C     -2.196965    3.263029    1.562802
  C     -0.906290    2.805608    1.839833
  C     -0.288148    1.918211    0.955621
  Cl    -2.977260    4.369042    2.666305
  Cl    -2.394068   -5.399106    0.433778
  H     -0.237101   -2.296626   -2.646135
  H     -1.050892   -4.541881   -1.943172
  H     -2.491909   -2.863840    1.755598
  H     -1.655685   -0.623957    1.072912
  H      2.069430    1.959425   -2.041497
  H      4.449687    1.984279   -1.313350
  H      3.743468   -1.502018    1.119916
  H      1.358455   -1.515760    0.420632
  H     -2.756480    1.660235   -1.380585
  H     -3.875097    3.221307    0.203354
  H     -0.394523    3.140977    2.743456
  H      0.717370    1.558294    1.181427

 Multiplicity           Mult            ....    1
 Number of Electrons    NEL             ....  186
 Basis Dimension        Dim             ....  384

ORBITAL ENERGIES
----------------

  NO   OCC          E(Eh)            E(eV)
   0   2.0000    -101.505859     -2762.1148
   1   2.0000    -101.505838     -2762.1143
   2   2.0000    -101.505763     -2762.1122
   3   2.0000     -77.065521     -2097.0594
   4   2.0000     -10.252279      -278.9787
   5   2.0000     -10.252234      -278.9775
   6   2.0000     -10.252136      -278.9748
   7   2.0000     -10.209102      -277.8038
   8   2.0000     -10.209082      -277.8033
   9   2.0000     -10.209004      -277.8011
  10   2.0000     -10.208192      -277.7790
  11   2.0000     -10.208179      -277.7787
  12   2.0000     -10.208111      -277.7768
  13   2.0000     -10.207948      -277.7724
  14   2.0000     -10.207910      -277.7714
  15   2.0000     -10.207838      -277.7694
  16   2.0000     -10.207417      -277.7579
  17   2.0000     -10.207382      -277.7570
  18   2.0000     -10.207293      -277.7546
  19   2.0000     -10.205913      -277.7170
  20   2.0000     -10.205889      -277.7164
  21   2.0000     -10.205822      -277.7145
  22   2.0000      -9.460450      -257.4319
  23   2.0000      -9.460429      -257.4314
  24   2.0000      -9.460353      -257.4293
  25   2.0000      -7.229462      -196.7237
  26   2.0000      -7.229443      -196.7231
  27   2.0000      -7.229365      -196.7210
  28   2.0000      -7.219760      -196.4597
  29   2.0000      -7.219739      -196.4591
  30   2.0000      -7.219663      -196.4570
  31   2.0000      -7.219310      -196.4474
  32   2.0000      -7.219287      -196.4468
  33   2.0000      -7.219214      -196.4448
  34   2.0000      -6.561085      -178.5362
  35   2.0000      -4.726521      -128.6152
  36   2.0000      -4.726516      -128.6151
  37   2.0000      -4.723601      -128.5357
  38   2.0000      -0.892002       -24.2726
  39   2.0000      -0.890249       -24.2249
  40   2.0000      -0.890178       -24.2230
  41   2.0000      -0.845238       -23.0001
  42   2.0000      -0.834865       -22.7178
  43   2.0000      -0.834797       -22.7160
  44   2.0000      -0.761374       -20.7180
  45   2.0000      -0.757049       -20.6004
  46   2.0000      -0.757023       -20.5997
  47   2.0000      -0.756819       -20.5941
  48   2.0000      -0.728823       -19.8323
  49   2.0000      -0.728757       -19.8305
  50   2.0000      -0.644210       -17.5299
  51   2.0000      -0.622751       -16.9459
  52   2.0000      -0.622397       -16.9363
  53   2.0000      -0.622348       -16.9349
  54   2.0000      -0.596992       -16.2450
  55   2.0000      -0.596946       -16.2437
  56   2.0000      -0.569769       -15.5042
  57   2.0000      -0.520874       -14.1737
  58   2.0000      -0.520811       -14.1720
  59   2.0000      -0.492833       -13.4107
  60   2.0000      -0.481691       -13.1075
  61   2.0000      -0.480980       -13.0881
  62   2.0000      -0.480957       -13.0875
  63   2.0000      -0.463947       -12.6247
  64   2.0000      -0.463925       -12.6240
  65   2.0000      -0.456100       -12.4111
  66   2.0000      -0.439976       -11.9724
  67   2.0000      -0.439250       -11.9526
  68   2.0000      -0.439213       -11.9516
  69   2.0000      -0.426030       -11.5929
  70   2.0000      -0.425962       -11.5910
  71   2.0000      -0.403280       -10.9738
  72   2.0000      -0.401564       -10.9271
  73   2.0000      -0.401504       -10.9255
  74   2.0000      -0.394575       -10.7369
  75   2.0000      -0.369632       -10.0582
  76   2.0000      -0.369598       -10.0573
  77   2.0000      -0.368336       -10.0229
  78   2.0000      -0.349048        -9.4981
  79   2.0000      -0.348950        -9.4954
  80   2.0000      -0.339809        -9.2467
  81   2.0000      -0.333132        -9.0650
  82   2.0000      -0.332999        -9.0614
  83   2.0000      -0.311906        -8.4874
  84   2.0000      -0.311880        -8.4867
  85   2.0000      -0.311813        -8.4849
  86   2.0000      -0.277926        -7.5628
  87   2.0000      -0.276192        -7.5156
  88   2.0000      -0.272171        -7.4062
  89   2.0000      -0.272075        -7.4035
  90   2.0000      -0.255615        -6.9556
  91   2.0000      -0.255464        -6.9515
  92   2.0000      -0.224727        -6.1151
  93   0.0000      -0.039579        -1.0770
  94   0.0000      -0.039442        -1.0733
  95   0.0000      -0.037833        -1.0295
  96   0.0000      -0.023078        -0.6280
  97   0.0000      -0.020664        -0.5623

MULLIKEN ATOMIC CHARGES
-----------------------
   0 C :    0.017204
   1 C :    0.036647
   2 C :    0.051994
   3 C :    0.042380
   4 C :    0.009251
   5 C :   -0.154205
   6 P :    0.374633
   7 C :   -0.154235
   8 C :    0.016959
   9 C :    0.036716
  10 C :    0.051906
  11 C :    0.042456
  12 C :    0.008854
  13 Cl:   -0.096007
  14 C :   -0.154076
  15 C :    0.017122
  16 C :    0.036677
  17 C :    0.051931
  18 C :    0.042361
  19 C :    0.008747
  20 Cl:   -0.096120
  21 Cl:   -0.095995
  22 H :   -0.007128
  23 H :   -0.013554
  24 H :   -0.015450
  25 H :    0.004453
  26 H :   -0.007104
  27 H :   -0.013596
  28 H :   -0.015455
  29 H :    0.004318
  30 H :   -0.007230
  31 H :   -0.013601
  32 H :   -0.015532
  33 H :    0.004679
Sum of atomic charges:   -0.0000000

LOEWDIN ATOMIC CHARGES
----------------------
   0 C :   -0.020096
   1 C :   -0.039728
   2 C :   -0.111009
   3 C :   -0.040164
   4 C :   -0.022966
   5 C :   -0.180123
   6 P :    0.519408
   7 C :   -0.180066
   8 C :   -0.020206
   9 C :   -0.039730
  10 C :   -0.111125
  11 C :   -0.040120
  12 C :   -0.023011
  13 Cl:    0.112782
  14 C :   -0.179966
  15 C :   -0.020161
  16 C :   -0.039669
  17 C :   -0.111162
  18 C :   -0.040130
  19 C :   -0.023264
  20 Cl:    0.112677
  21 Cl:    0.112787
  22 H :    0.029383
  23 H :    0.033422
  24 H :    0.033073
  25 H :    0.032502
  26 H :    0.029379
  27 H :    0.033417
  28 H :    0.033071
  29 H :    0.032480
  30 H :    0.029358
  31 H :    0.033410
  32 H :    0.033048
  33 H :    0.032498

  Mayer bond orders larger than 0.100000
B(  0-C ,  1-C ) :   1.3931 B(  0-C ,  5-C ) :   1.3601 B(  0-C , 22-H ) :   0.9794
B(  1-C ,  2-C ) :   1.3806 B(  1-C , 23-H ) :   0.9887 B(  2-C ,  3-C ) :   1.3842
B(  2-C , 21-Cl) :   0.9721 B(  3-C ,  4-C ) :   1.3711 B(  3-C , 24-H ) :   0.9886
B(  4-C ,  5-C ) :   1.3737 B(  4-C , 25-H ) :   0.9771 B(  5-C ,  6-P ) :   0.9312
B(  6-P ,  7-C ) :   0.9307 B(  6-P , 14-C ) :   0.9305 B(  7-C ,  8-C ) :   1.3598
B(  7-C , 12-C ) :   1.3741 B(  8-C ,  9-C ) :   1.3936 B(  8-C , 26-H ) :   0.9793
B(  9-C , 10-C ) :   1.3802 B(  9-C , 27-H ) :   0.9888 B( 10-C , 11-C ) :   1.3845
B( 10-C , 13-Cl) :   0.9720 B( 11-C , 12-C ) :   1.3711 B( 11-C , 28-H ) :   0.9885
B( 12-C , 29-H ) :   0.9772 B( 14-C , 15-C ) :   1.3595 B( 14-C , 19-C ) :   1.3748
B( 15-C , 16-C ) :   1.3940 B( 15-C , 30-H ) :   0.9793 B( 16-C , 17-C ) :   1.3800
B( 16-C , 31-H ) :   0.9887 B( 17-C , 18-C ) :   1.3848 B( 17-C , 20-Cl) :   0.9719
B( 18-C , 19-C ) :   1.3705 B( 18-C , 32-H ) :   0.9885 B( 19-C , 33-H ) :   0.9770

Dispersion correction           -0.097116491
FINAL SINGLE POINT ENERGY     -2413.514482596659

DIPOLE MOMENT
-------------

Method             : SCF
Type of density    : Electron Density
Multiplicity       :   1
Irrep              :   0
Energy             : -2413.4173661059776350 Eh
Relativity type    :
Basis              : AO
                                X                 Y                 Z
Electronic contribution:      0.778270706      -1.143072602       5.223697925
Nuclear contribution   :     -0.800787393       1.173202255      -5.379632960
                        -----------------------------------------
Total Dipole Moment    :     -0.022516687       0.030129653      -0.155935035
                        -----------------------------------------
Magnitude (a.u.)       :      0.160407395
Magnitude (Debye)      :      0.407723195

Rotational constants in cm-1:             0.005083             0.005075             0.002873
Rotational constants in MHz :           152.380582           152.155072            86.127875

                             ****ORCA TERMINATED NORMALLY****
TOTAL RUN TIME: 0 days 0 hours 5 minutes 59 seconds 969 msec
