                         Program Version 6.0.0  -   RELEASE   -
|  1> ! RI BP86 def2-SVP D3BJ TIGHTSCF Opt
|  2> %pal
|  3> nprocs 6
|  4> end
|  5>
|  6> * xyz 0 1
|  7> C     -3.967506   -0.873980   -0.841056
|  8> C     -2.581088   -0.417841   -1.262363
|  9> C     -1.500278   -0.974997   -0.344706
| 10> P      0.169646   -0.520214   -0.824999
| 11> O      0.502803   -0.979645   -2.217315
| 12> C      0.320727    1.258425   -0.649321
| 13> C      0.004129    1.827112    0.727439
| 14> C      0.164795    3.338315    0.759803
| 15> C      1.229270   -1.281348    0.409515
| 16> C      2.714068   -1.012137    0.200784
| 17> C      3.566157   -1.719515    1.240629
| 18> H     -4.198232   -0.539640    0.175469
| 19> H     -4.047615   -1.965309   -0.870665
| 20> H     -4.724001   -0.459653   -1.514792
| 21> H     -2.542629    0.676623   -1.257753
| 22> H     -2.388093   -0.736063   -2.292889
| 23> H     -1.556004   -2.069945   -0.343085
| 24> H     -1.681198   -0.652620    0.686143
| 25> H     -0.336218    1.724426   -1.392696
| 26> H      1.343668    1.535884   -0.928513
| 27> H      0.664472    1.380221    1.477370
| 28> H     -1.021041    1.569393    1.011633
| 29> H     -0.509610    3.820052    0.044651
| 30> H      1.191263    3.629156    0.514632
| 31> H     -0.067807    3.722836    1.757783
| 32> H      1.049367   -2.362358    0.376820
| 33> H      0.923935   -0.945010    1.405987
| 34> H      3.009994   -1.341908   -0.801301
| 35> H      2.905156    0.065196    0.247571
| 36> H      3.423248   -2.803796    1.193664
| 37> H      4.626392   -1.509085    1.068887
| 38> H      3.312228   -1.382574    2.250743
| 39> **                         ****END OF INPUT****
 Total Charge           Charge          ....    0
 Multiplicity           Mult            ....    1
 Number of Electrons    NEL             ....   98
Dispersion correction           -0.051924185
FINAL SINGLE POINT ENERGY      -771.864545389438
Dispersion correction             ... done (  0.1 sec)
Dispersion correction           -0.051233381
FINAL SINGLE POINT ENERGY      -771.871756982702
Dispersion correction             ... done (  0.1 sec)
Dispersion correction           -0.050903702
FINAL SINGLE POINT ENERGY      -771.873022963334
Dispersion correction             ... done (  0.1 sec)
FINAL SINGLE POINT ENERGY      -771.873375192025
FINAL SINGLE POINT ENERGY      -771.873440229660
Dispersion correction             ... done (  0.1 sec)
Dispersion correction           -0.050778966
FINAL SINGLE POINT ENERGY      -771.873454057383
Dispersion correction             ... done (  0.1 sec)
Dispersion correction           -0.050785439
FINAL SINGLE POINT ENERGY      -771.873457389353
Dispersion correction             ... done (  0.1 sec)
                    ***********************HURRAY********************

CARTESIAN COORDINATES (ANGSTROEM)
---------------------------------
  C     -4.023176   -0.946031   -0.961950
  C     -2.610706   -0.434259   -1.258317
  C     -1.560570   -0.952367   -0.265104
  P      0.157040   -0.535440   -0.794977
  O      0.490489   -1.011869   -2.198618
  C      0.316338    1.297575   -0.616932
  C      0.026398    1.906632    0.760634
  C      0.168683    3.432956    0.776852
  C      1.238383   -1.269717    0.507504
  C      2.728481   -1.041087    0.216008
  C      3.651165   -1.801990    1.172601
  H     -4.364025   -0.639332    0.049520
  H     -4.064537   -2.054725   -1.002962
  H     -4.757841   -0.556680   -1.695925
  H     -2.608324    0.678081   -1.253706
  H     -2.294924   -0.735129   -2.279949
  H     -1.592346   -2.063082   -0.217285
  H     -1.742168   -0.579336    0.766660
  H     -0.351642    1.725288   -1.395922
  H      1.349142    1.533710   -0.953644
  H      0.711573    1.463937    1.516290
  H     -1.000645    1.629543    1.084813
  H     -0.529138    3.908190    0.056257
  H      1.196403    3.743820    0.495492
  H     -0.046955    3.852156    1.780796
  H      1.008445   -2.357892    0.502344
  H      0.946883   -0.883028    1.508726
  H      2.923396   -1.342796   -0.835027
  H      2.954811    0.046945    0.267814
  H      3.477542   -2.896776    1.111082
  H      4.719415   -1.618649    0.937514
  H      3.482407   -1.498647    2.227480

 Multiplicity           Mult            ....    1
 Number of Electrons    NEL             ....   98
 Basis Dimension        Dim             ....  263

ORBITAL ENERGIES
----------------

  NO   OCC          E(Eh)            E(eV)
   0   2.0000     -76.399113     -2078.9255
   1   2.0000     -18.703602      -508.9509
   2   2.0000      -9.930034      -270.2100
   3   2.0000      -9.920422      -269.9484
   4   2.0000      -9.920406      -269.9480
   5   2.0000      -9.920352      -269.9465
   6   2.0000      -9.920345      -269.9463
   7   2.0000      -9.920165      -269.9414
   8   2.0000      -9.917109      -269.8582
   9   2.0000      -9.911517      -269.7061
  10   2.0000      -9.911479      -269.7051
  11   2.0000      -6.358915      -173.0349
  12   2.0000      -4.580079      -124.6303
  13   2.0000      -4.580073      -124.6301
  14   2.0000      -4.579802      -124.6227
  15   2.0000      -0.837364       -22.7858
  16   2.0000      -0.726380       -19.7658
  17   2.0000      -0.710929       -19.3454
  18   2.0000      -0.710531       -19.3345
  19   2.0000      -0.647025       -17.6065
  20   2.0000      -0.616412       -16.7734
  21   2.0000      -0.613135       -16.6843
  22   2.0000      -0.541530       -14.7358
  23   2.0000      -0.539019       -14.6675
  24   2.0000      -0.521657       -14.1950
  25   2.0000      -0.471220       -12.8226
  26   2.0000      -0.432448       -11.7675
  27   2.0000      -0.426678       -11.6105
  28   2.0000      -0.414769       -11.2864
  29   2.0000      -0.395968       -10.7748
  30   2.0000      -0.392144       -10.6708
  31   2.0000      -0.377981       -10.2854
  32   2.0000      -0.371240       -10.1020
  33   2.0000      -0.370682       -10.0868
  34   2.0000      -0.350617        -9.5408
  35   2.0000      -0.349003        -9.4968
  36   2.0000      -0.342837        -9.3291
  37   2.0000      -0.340370        -9.2619
  38   2.0000      -0.320362        -8.7175
  39   2.0000      -0.314108        -8.5473
  40   2.0000      -0.305747        -8.3198
  41   2.0000      -0.302428        -8.2295
  42   2.0000      -0.300193        -8.1687
  43   2.0000      -0.292716        -7.9652
  44   2.0000      -0.291201        -7.9240
  45   2.0000      -0.284620        -7.7449
  46   2.0000      -0.284327        -7.7369
  47   2.0000      -0.205910        -5.6031
  48   2.0000      -0.202850        -5.5198
  49   0.0000       0.012931         0.3519
  50   0.0000       0.035644         0.9699
  51   0.0000       0.036650         0.9973
  52   0.0000       0.051532         1.4023
  53   0.0000       0.055814         1.5188

MULLIKEN ATOMIC CHARGES
-----------------------
   0 C :   -0.042345
   1 C :   -0.053907
   2 C :   -0.151133
   3 P :    0.448872
   4 O :   -0.471331
   5 C :   -0.166477
   6 C :   -0.065412
   7 C :   -0.045693
   8 C :   -0.152349
   9 C :   -0.053549
  10 C :   -0.042153
  11 H :    0.024505
  12 H :    0.032312
  13 H :    0.034578
  14 H :    0.025850
  15 H :    0.051051
  16 H :    0.052694
  17 H :    0.037433
  18 H :    0.057809
  19 H :    0.058697
  20 H :    0.032276
  21 H :    0.031595
  22 H :    0.032273
  23 H :    0.032383
  24 H :    0.033996
  25 H :    0.052643
  26 H :    0.037527
  27 H :    0.050916
  28 H :    0.025663
  29 H :    0.032176
  30 H :    0.034648
  31 H :    0.024450
Sum of atomic charges:   -0.0000000

LOEWDIN ATOMIC CHARGES
----------------------
   0 C :   -0.072918
   1 C :   -0.059187
   2 C :   -0.195763
   3 P :    0.865188
   4 O :   -0.509506
   5 C :   -0.197800
   6 C :   -0.061244
   7 C :   -0.071398
   8 C :   -0.196032
   9 C :   -0.059113
  10 C :   -0.072890
  11 H :    0.025642
  12 H :    0.028874
  13 H :    0.031414
  14 H :    0.024870
  15 H :    0.034886
  16 H :    0.036083
  17 H :    0.025594
  18 H :    0.036833
  19 H :    0.037144
  20 H :    0.026581
  21 H :    0.026235
  22 H :    0.029194
  23 H :    0.029282
  24 H :    0.030528
  25 H :    0.036041
  26 H :    0.025708
  27 H :    0.035027
  28 H :    0.024888
  29 H :    0.028812
  30 H :    0.031397
  31 H :    0.025630

  Mayer bond orders larger than 0.100000
B(  0-C ,  1-C ) :   1.1135 B(  0-C , 11-H ) :   0.9657 B(  0-C , 12-H ) :   0.9677
B(  0-C , 13-H ) :   0.9625 B(  1-C ,  2-C ) :   1.0647 B(  1-C , 14-H ) :   0.9399
B(  1-C , 15-H ) :   0.9323 B(  2-C ,  3-P ) :   0.9153 B(  2-C , 16-H ) :   0.9235
B(  2-C , 17-H ) :   0.9136 B(  3-P ,  4-O ) :   1.8817 B(  3-P ,  5-C ) :   0.9141
B(  3-P ,  8-C ) :   0.9149 B(  5-C ,  6-C ) :   1.0261 B(  5-C , 18-H ) :   0.9239
B(  5-C , 19-H ) :   0.9235 B(  6-C ,  7-C ) :   1.1103 B(  6-C , 20-H ) :   0.9386
B(  6-C , 21-H ) :   0.9395 B(  7-C , 22-H ) :   0.9672 B(  7-C , 23-H ) :   0.9672
B(  7-C , 24-H ) :   0.9622 B(  8-C ,  9-C ) :   1.0646 B(  8-C , 25-H ) :   0.9235
B(  8-C , 26-H ) :   0.9137 B(  9-C , 10-C ) :   1.1134 B(  9-C , 27-H ) :   0.9324
B(  9-C , 28-H ) :   0.9399 B( 10-C , 29-H ) :   0.9678 B( 10-C , 30-H ) :   0.9625
B( 10-C , 31-H ) :   0.9656

Dispersion correction           -0.050784775
FINAL SINGLE POINT ENERGY      -771.873457978556

DIPOLE MOMENT
-------------

Method             : SCF
Type of density    : Electron Density
Multiplicity       :   1
Irrep              :   0
Energy             :  -771.8226732038187947 Eh
Relativity type    :
Basis              : AO
                                X                 Y                 Z
Electronic contribution:      1.577898836      -4.318595441      -7.504239603
Nuclear contribution   :     -1.891101579       4.843690793       8.857344203
                        -----------------------------------------
Total Dipole Moment    :     -0.313202742       0.525095352       1.353104600
                        -----------------------------------------
Magnitude (a.u.)       :      1.484827649
Magnitude (Debye)      :      3.774131947

Rotational constants in cm-1:             0.031488             0.018927             0.013948
Rotational constants in MHz :           943.981715           567.430345           418.139968

                             ****ORCA TERMINATED NORMALLY****
TOTAL RUN TIME: 0 days 0 hours 1 minutes 13 seconds 140 msec
