                         Program Version 6.0.0  -   RELEASE   -
|  1> ! RI BP86 def2-SVP D3BJ TIGHTSCF Opt
|  2> %pal
|  3> nprocs 6
|  4> end
|  5>
|  6> * xyz 0 1
|  7> C      1.407606   -0.697950   -0.432551
|  8> P      0.158379    0.024045    0.611240
|  9> O      0.564964    0.085773    2.055084
| 10> C     -1.312846   -0.943131    0.344008
| 11> C     -0.184483    1.627459   -0.083638
| 12> H      2.332168   -0.116045   -0.382753
| 13> H      1.076904   -0.726160   -1.474688
| 14> H      1.627563   -1.721248   -0.115709
| 15> H     -1.577903   -0.965424   -0.716867
| 16> H     -1.161335   -1.972597    0.680388
| 17> H     -2.155513   -0.520497    0.898266
| 18> H      0.700024    2.267870   -0.025060
| 19> H     -0.476767    1.543138   -1.134193
| 20> H     -0.998761    2.114767    0.459862
| 21> **                         ****END OF INPUT****
 Total Charge           Charge          ....    0
 Multiplicity           Mult            ....    1
 Number of Electrons    NEL             ....   50
Dispersion correction           -0.019115863
FINAL SINGLE POINT ENERGY      -536.141303877944
Dispersion correction             ... done (  0.1 sec)
Dispersion correction           -0.018944620
FINAL SINGLE POINT ENERGY      -536.145895818968
Dispersion correction             ... done (  0.1 sec)
Dispersion correction           -0.018811291
FINAL SINGLE POINT ENERGY      -536.147272086595
Dispersion correction             ... done (  0.1 sec)
FINAL SINGLE POINT ENERGY      -536.147438712317
Dispersion correction             ... done (  0.1 sec)
Dispersion correction           -0.018772222
FINAL SINGLE POINT ENERGY      -536.147467005302
Dispersion correction             ... done (  0.2 sec)
Dispersion correction           -0.018776929
FINAL SINGLE POINT ENERGY      -536.147475225601
Dispersion correction             ... done (  0.1 sec)
                    ***********************HURRAY********************

CARTESIAN COORDINATES (ANGSTROEM)
---------------------------------
  C      1.436542   -0.715322   -0.460513
  P      0.168451    0.025611    0.647019
  O      0.578497    0.088033    2.102532
  C     -1.348688   -0.966403    0.334662
  C     -0.193581    1.665596   -0.103228
  H      2.366957   -0.119524   -0.378465
  H      1.109017   -0.746812   -1.518952
  H      1.653241   -1.743460   -0.109328
  H     -1.623487   -0.994107   -0.738791
  H     -1.176104   -1.998192    0.699362
  H     -2.182090   -0.528903    0.918984
  H      0.710533    2.299966   -0.016548
  H     -0.491187    1.588515   -1.168147
  H     -1.008101    2.145001    0.474802

 Multiplicity           Mult            ....    1
 Number of Electrons    NEL             ....   50
 Basis Dimension        Dim             ....  119

ORBITAL ENERGIES
----------------

  NO   OCC          E(Eh)            E(eV)
   0   2.0000     -76.407038     -2079.1412
   1   2.0000     -18.704974      -508.9882
   2   2.0000      -9.922559      -270.0066
   3   2.0000      -9.922548      -270.0063
   4   2.0000      -9.922490      -270.0047
   5   2.0000      -6.367271      -173.2622
   6   2.0000      -4.588512      -124.8598
   7   2.0000      -4.588509      -124.8597
   8   2.0000      -4.587998      -124.8458
   9   2.0000      -0.840763       -22.8783
  10   2.0000      -0.686790       -18.6885
  11   2.0000      -0.633223       -17.2309
  12   2.0000      -0.633217       -17.2307
  13   2.0000      -0.476174       -12.9573
  14   2.0000      -0.398801       -10.8519
  15   2.0000      -0.398519       -10.8443
  16   2.0000      -0.398504       -10.8438
  17   2.0000      -0.373960       -10.1760
  18   2.0000      -0.373949       -10.1757
  19   2.0000      -0.355708        -9.6793
  20   2.0000      -0.321621        -8.7517
  21   2.0000      -0.321596        -8.7511
  22   2.0000      -0.295162        -8.0318
  23   2.0000      -0.209333        -5.6963
  24   2.0000      -0.209330        -5.6962
  25   0.0000       0.017872         0.4863
  26   0.0000       0.043714         1.1895
  27   0.0000       0.061414         1.6712
  28   0.0000       0.061440         1.6719
  29   0.0000       0.078558         2.1377

MULLIKEN ATOMIC CHARGES
-----------------------
   0 C :   -0.191153
   1 P :    0.421494
   2 O :   -0.466780
   3 C :   -0.191240
   4 C :   -0.191160
   5 H :    0.076838
   6 H :    0.052604
   7 H :    0.076805
   8 H :    0.052648
   9 H :    0.076862
  10 H :    0.076826
  11 H :    0.076838
  12 H :    0.052592
  13 H :    0.076826
Sum of atomic charges:   -0.0000000

LOEWDIN ATOMIC CHARGES
----------------------
   0 C :   -0.235533
   1 P :    0.845168
   2 O :   -0.506014
   3 C :   -0.235534
   4 C :   -0.235528
   5 H :    0.043999
   6 H :    0.034478
   7 H :    0.043987
   8 H :    0.034496
   9 H :    0.044009
  10 H :    0.043997
  11 H :    0.044000
  12 H :    0.034476
  13 H :    0.043998

  Mayer bond orders larger than 0.100000
B(  0-C ,  1-P ) :   0.9384 B(  0-C ,  5-H ) :   0.9559 B(  0-C ,  6-H ) :   0.9422
B(  0-C ,  7-H ) :   0.9559 B(  1-P ,  2-O ) :   1.9271 B(  1-P ,  3-C ) :   0.9383
B(  1-P ,  4-C ) :   0.9383 B(  3-C ,  8-H ) :   0.9422 B(  3-C ,  9-H ) :   0.9559
B(  3-C , 10-H ) :   0.9559 B(  4-C , 11-H ) :   0.9559 B(  4-C , 12-H ) :   0.9422
B(  4-C , 13-H ) :   0.9559

Dispersion correction           -0.018780749
FINAL SINGLE POINT ENERGY      -536.147476682870

DIPOLE MOMENT
-------------

Method             : SCF
Type of density    : Electron Density
Multiplicity       :   1
Irrep              :   0
Energy             :  -536.1286959342801310 Eh
Relativity type    :
Basis              : AO
                                X                 Y                 Z
Electronic contribution:      1.359292677       0.206639586       4.826699974
Nuclear contribution   :     -1.775159533      -0.269961967      -6.302468783
                        -----------------------------------------
Total Dipole Moment    :     -0.415866856      -0.063322381      -1.475768808
                        -----------------------------------------
Magnitude (a.u.)       :      1.534551577
Magnitude (Debye)      :      3.900520128

Rotational constants in cm-1:             0.120929             0.120921             0.116661
Rotational constants in MHz :          3625.356486          3625.122244          3497.414770

                             ****ORCA TERMINATED NORMALLY****
TOTAL RUN TIME: 0 days 0 hours 0 minutes 20 seconds 598 msec
