                         Program Version 6.0.0  -   RELEASE   -
|  1> ! RIJCOSX M062X def2-TZVP D3ZERO NormalSCF
|  2> %pal
|  3> nprocs 6
|  4> end
|  5>
|  6> * xyz 0 1
|  7>   C           3.99943425906156     -0.69036225613053      1.18169031797494
|  8>   N           2.88449033648483     -0.09983127719591      0.46364966226826
|  9>   C           2.58776258714806      1.24555542400103      0.93026449849326
| 10>   C           3.05218877057367     -0.18579186602635     -0.98461402571512
| 11>   C           1.75575468388335      0.10249649826299     -1.75524539160892
| 12>   C           0.62079563659910     -0.84767575153719     -1.34438919047781
| 13>   P          -1.06895713327308     -0.13011729880899     -1.72538594033435
| 14>   C          -2.19102495231554     -1.34184777226998     -0.89159817169068
| 15>   C          -3.56759521989557     -1.01866535207789     -0.85042502101979
| 16>   C          -4.49201462389278     -1.88560607646828     -0.25233500997064
| 17>   C          -4.06043837649255     -3.10560134197139      0.29956299054922
| 18>   C          -2.69928059738731     -3.44389410048065      0.25253310906787
| 19>   C          -1.76924272428279     -2.56738597722447     -0.33425945850150
| 20>   C          -1.05233970695254      1.21533272953756     -0.44128548999952
| 21>   C          -0.82367074593818      2.54043492801897     -0.86865483641724
| 22>   C          -0.70565289540592      3.58388482893623      0.06609344632999
| 23>   C          -0.83395687876328      3.31438509043356      1.43827342805034
| 24>   C          -1.07837439277822      1.99885438446359      1.87234738062135
| 25>   C          -1.18318920516235      0.95591218406150      0.94012590232225
| 26>   H           3.79236585652130     -0.69176474533643      2.27183505828539
| 27>   H           4.14654179884871     -1.74215864076452      0.86045852539923
| 28>   H           4.97233960926811     -0.14800823034091      1.02431662967943
| 29>   H           1.65788697447398      1.63110556256436      0.46964915989187
| 30>   H           3.41258567574280      1.97799852282047      0.71132414346929
| 31>   H           2.42638715950538      1.23406674067787      2.02678905821699
| 32>   H           3.39223031098427     -1.21823366980588     -1.21890781207801
| 33>   H           3.86271306116143      0.50383172907802     -1.35169112229822
| 34>   H           1.95673427379291      0.03078397094219     -2.84422864499758
| 35>   H           1.45747128889337      1.15764418359203     -1.57629757566053
| 36>   H           0.71134658377417     -1.81748517833997     -1.87925690562656
| 37>   H           0.70545633701704     -1.04962409323026     -0.25468272368723
| 38>   H          -3.91251237509995     -0.06799329325064     -1.28915451598154
| 39>   H          -5.55814178277186     -1.61206793489066     -0.22153859534169
| 40>   H          -4.78628376976398     -3.79122955545779      0.76302430144539
| 41>   H          -2.35246733880928     -4.39664388466270      0.68230498861780
| 42>   H          -0.70553264024827     -2.84544404348085     -0.34696660062246
| 43>   H          -0.73728119876272      2.75183624906009     -1.94674230294155
| 44>   H          -0.52017301612014      4.61240924788766     -0.28027317592509
| 45>   H          -0.74775789613504      4.13075239143629      2.17179019845486
| 46>   H          -1.18227138762938      1.78392028915251      2.94731115162301
| 47>   H          -1.36632934585329     -0.07377261517468      1.28458956013533
| 48> **                         ****END OF INPUT****

CARTESIAN COORDINATES (ANGSTROEM)
---------------------------------
  C      3.999434   -0.690362    1.181690
  N      2.884490   -0.099831    0.463650
  C      2.587763    1.245555    0.930264
  C      3.052189   -0.185792   -0.984614
  C      1.755755    0.102496   -1.755245
  C      0.620796   -0.847676   -1.344389
  P     -1.068957   -0.130117   -1.725386
  C     -2.191025   -1.341848   -0.891598
  C     -3.567595   -1.018665   -0.850425
  C     -4.492015   -1.885606   -0.252335
  C     -4.060438   -3.105601    0.299563
  C     -2.699281   -3.443894    0.252533
  C     -1.769243   -2.567386   -0.334259
  C     -1.052340    1.215333   -0.441285
  C     -0.823671    2.540435   -0.868655
  C     -0.705653    3.583885    0.066093
  C     -0.833957    3.314385    1.438273
  C     -1.078374    1.998854    1.872347
  C     -1.183189    0.955912    0.940126
  H      3.792366   -0.691765    2.271835
  H      4.146542   -1.742159    0.860459
  H      4.972340   -0.148008    1.024317
  H      1.657887    1.631106    0.469649
  H      3.412586    1.977999    0.711324
  H      2.426387    1.234067    2.026789
  H      3.392230   -1.218234   -1.218908
  H      3.862713    0.503832   -1.351691
  H      1.956734    0.030784   -2.844229
  H      1.457471    1.157644   -1.576298
  H      0.711347   -1.817485   -1.879257
  H      0.705456   -1.049624   -0.254683
  H     -3.912512   -0.067993   -1.289155
  H     -5.558142   -1.612068   -0.221539
  H     -4.786284   -3.791230    0.763024
  H     -2.352467   -4.396644    0.682305
  H     -0.705533   -2.845444   -0.346967
  H     -0.737281    2.751836   -1.946742
  H     -0.520173    4.612409   -0.280273
  H     -0.747758    4.130752    2.171790
  H     -1.182271    1.783920    2.947311
  H     -1.366329   -0.073773    1.284590

 Total Charge           Charge          ....    0
 Multiplicity           Mult            ....    1
 Number of Electrons    NEL             ....  146
 Basis Dimension        Dim             ....  727

ORBITAL ENERGIES
----------------

  NO   OCC          E(Eh)            E(eV)
   0   2.0000     -78.024136     -2123.1447
   1   2.0000     -14.736212      -400.9927
   2   2.0000     -10.561200      -287.3849
   3   2.0000     -10.555212      -287.2219
   4   2.0000     -10.552301      -287.1427
   5   2.0000     -10.552167      -287.1391
   6   2.0000     -10.551896      -287.1317
   7   2.0000     -10.551442      -287.1193
   8   2.0000     -10.550586      -287.0960
   9   2.0000     -10.550027      -287.0808
  10   2.0000     -10.549711      -287.0722
  11   2.0000     -10.549378      -287.0632
  12   2.0000     -10.549164      -287.0573
  13   2.0000     -10.549128      -287.0564
  14   2.0000     -10.548866      -287.0492
  15   2.0000     -10.548441      -287.0377
  16   2.0000     -10.547972      -287.0249
  17   2.0000     -10.537671      -286.7446
  18   2.0000     -10.536312      -286.7076
  19   2.0000      -6.840174      -186.1306
  20   2.0000      -4.954731      -134.8251
  21   2.0000      -4.954452      -134.8175
  22   2.0000      -4.954228      -134.8114
  23   2.0000      -1.026624       -27.9358
  24   2.0000      -0.957898       -26.0657
  25   2.0000      -0.951944       -25.9037
  26   2.0000      -0.882112       -24.0035
  27   2.0000      -0.852200       -23.1895
  28   2.0000      -0.840625       -22.8746
  29   2.0000      -0.838892       -22.8274
  30   2.0000      -0.833496       -22.6806
  31   2.0000      -0.789446       -21.4819
  32   2.0000      -0.783860       -21.3299
  33   2.0000      -0.722232       -19.6529
  34   2.0000      -0.695469       -18.9247
  35   2.0000      -0.686111       -18.6700
  36   2.0000      -0.679757       -18.4971
  37   2.0000      -0.674700       -18.3595
  38   2.0000      -0.641759       -17.4631
  39   2.0000      -0.623481       -16.9658
  40   2.0000      -0.587193       -15.9783
  41   2.0000      -0.570914       -15.5354
  42   2.0000      -0.553344       -15.0573
  43   2.0000      -0.539187       -14.6720
  44   2.0000      -0.525147       -14.2900
  45   2.0000      -0.523083       -14.2338
  46   2.0000      -0.515033       -14.0148
  47   2.0000      -0.514388       -13.9972
  48   2.0000      -0.510841       -13.9007
  49   2.0000      -0.494002       -13.4425
  50   2.0000      -0.486000       -13.2247
  51   2.0000      -0.485597       -13.2138
  52   2.0000      -0.476008       -12.9528
  53   2.0000      -0.466681       -12.6990
  54   2.0000      -0.456152       -12.4125
  55   2.0000      -0.448527       -12.2051
  56   2.0000      -0.437552       -11.9064
  57   2.0000      -0.433797       -11.8042
  58   2.0000      -0.427038       -11.6203
  59   2.0000      -0.420777       -11.4499
  60   2.0000      -0.415219       -11.2987
  61   2.0000      -0.403185       -10.9712
  62   2.0000      -0.401959       -10.9379
  63   2.0000      -0.399677       -10.8758
  64   2.0000      -0.392212       -10.6726
  65   2.0000      -0.369589       -10.0570
  66   2.0000      -0.361879        -9.8472
  67   2.0000      -0.321546        -8.7497
  68   2.0000      -0.311542        -8.4775
  69   2.0000      -0.309671        -8.4266
  70   2.0000      -0.306244        -8.3333
  71   2.0000      -0.275868        -7.5068
  72   2.0000      -0.266655        -7.2560
  73   0.0000       0.000870         0.0237
  74   0.0000       0.008274         0.2251
  75   0.0000       0.010175         0.2769
  76   0.0000       0.022551         0.6136
  77   0.0000       0.062178         1.6919

MULLIKEN ATOMIC CHARGES
-----------------------
   0 C :   -0.354347
   1 N :   -0.193006
   2 C :   -0.330627
   3 C :   -0.202505
   4 C :   -0.348993
   5 C :   -0.421232
   6 P :    0.166587
   7 C :   -0.033833
   8 C :   -0.149813
   9 C :   -0.149948
  10 C :   -0.140310
  11 C :   -0.158982
  12 C :   -0.176981
  13 C :   -0.084757
  14 C :   -0.172082
  15 C :   -0.133606
  16 C :   -0.136369
  17 C :   -0.174196
  18 C :   -0.143080
  19 H :    0.140359
  20 H :    0.139055
  21 H :    0.129597
  22 H :    0.122615
  23 H :    0.137346
  24 H :    0.144205
  25 H :    0.148131
  26 H :    0.139688
  27 H :    0.157550
  28 H :    0.172518
  29 H :    0.168706
  30 H :    0.197554
  31 H :    0.154395
  32 H :    0.144642
  33 H :    0.144188
  34 H :    0.143305
  35 H :    0.172100
  36 H :    0.163064
  37 H :    0.145202
  38 H :    0.144664
  39 H :    0.145198
  40 H :    0.183995
Sum of atomic charges:   -0.0000000

LOEWDIN ATOMIC CHARGES
----------------------
   0 C :   -0.341526
   1 N :    0.030245
   2 C :   -0.331606
   3 C :   -0.300140
   4 C :   -0.297174
   5 C :   -0.407550
   6 P :    0.652603
   7 C :   -0.281336
   8 C :   -0.139431
   9 C :   -0.143722
  10 C :   -0.144416
  11 C :   -0.145335
  12 C :   -0.149747
  13 C :   -0.279765
  14 C :   -0.158078
  15 C :   -0.148503
  16 C :   -0.143822
  17 C :   -0.143723
  18 C :   -0.132653
  19 H :    0.118618
  20 H :    0.117783
  21 H :    0.105000
  22 H :    0.124619
  23 H :    0.106708
  24 H :    0.121079
  25 H :    0.137924
  26 H :    0.125297
  27 H :    0.142435
  28 H :    0.141151
  29 H :    0.134547
  30 H :    0.139876
  31 H :    0.151178
  32 H :    0.147601
  33 H :    0.146511
  34 H :    0.147035
  35 H :    0.149913
  36 H :    0.148661
  37 H :    0.147440
  38 H :    0.147070
  39 H :    0.147955
  40 H :    0.157275

  Mayer bond orders larger than 0.100000
B(  0-C ,  1-N ) :   0.9788 B(  0-C , 19-H ) :   0.9721 B(  0-C , 20-H ) :   0.9723
B(  0-C , 21-H ) :   0.9615 B(  1-N ,  2-C ) :   0.9438 B(  1-N ,  3-C ) :   0.9344
B(  2-C , 22-H ) :   0.9738 B(  2-C , 23-H ) :   0.9661 B(  2-C , 24-H ) :   0.9698
B(  3-C ,  4-C ) :   0.9252 B(  3-C , 25-H ) :   0.9716 B(  3-C , 26-H ) :   0.9721
B(  4-C ,  5-C ) :   0.8942 B(  4-C , 27-H ) :   0.9793 B(  4-C , 28-H ) :   0.9977
B(  5-C ,  6-P ) :   0.9598 B(  5-C , 29-H ) :   0.9354 B(  5-C , 30-H ) :   0.9437
B(  6-P ,  7-C ) :   0.9680 B(  6-P , 13-C ) :   0.9487 B(  7-C ,  8-C ) :   1.3871
B(  7-C , 12-C ) :   1.3526 B(  8-C ,  9-C ) :   1.4777 B(  8-C , 31-H ) :   0.9362
B(  9-C , 10-C ) :   1.4200 B(  9-C , 32-H ) :   0.9473 B( 10-C , 11-C ) :   1.4549
B( 10-C , 33-H ) :   0.9471 B( 11-C , 12-C ) :   1.4614 B( 11-C , 34-H ) :   0.9431
B( 12-C , 35-H ) :   0.9259 B( 13-C , 14-C ) :   1.3646 B( 13-C , 18-C ) :   1.3174
B( 14-C , 15-C ) :   1.4462 B( 14-C , 36-H ) :   0.9392 B( 15-C , 16-C ) :   1.4438
B( 15-C , 37-H ) :   0.9511 B( 16-C , 17-C ) :   1.4154 B( 16-C , 38-H ) :   0.9517
B( 17-C , 18-C ) :   1.4573 B( 17-C , 39-H ) :   0.9517 B( 18-C , 40-H ) :   0.9366

Dispersion correction           -0.002865131
FINAL SINGLE POINT ENERGY     -1057.077128045824

DIPOLE MOMENT
-------------

Method             : SCF
Type of density    : Electron Density
Multiplicity       :   1
Irrep              :   0
Energy             : -1057.0742629147457592 Eh
Relativity type    :
Basis              : AO
                                X                 Y                 Z
Electronic contribution:    -20.166158557      -0.908535617      -6.836740088
Nuclear contribution   :     20.506090282       0.935772012       7.343063780
                        -----------------------------------------
Total Dipole Moment    :      0.339931725       0.027236395       0.506323692
                        -----------------------------------------
Magnitude (a.u.)       :      0.610458090
Magnitude (Debye)      :      1.551661152

Rotational constants in cm-1:             0.014740             0.008141             0.006544
Rotational constants in MHz :           441.879531           244.054617           196.186732

                             ****ORCA TERMINATED NORMALLY****
TOTAL RUN TIME: 0 days 0 hours 2 minutes 10 seconds 795 msec
