                         Program Version 6.0.0  -   RELEASE   -
|  1> ! RI BP86 def2-SVP D3BJ TIGHTSCF Opt
|  2> %pal
|  3> nprocs 6
|  4> end
|  5>
|  6> * xyz 0 1
|  7> C     -3.937703   -2.393980   -0.714327
|  8> C     -2.570580   -3.034328   -0.915380
|  9> C     -1.519776   -2.438077    0.021326
| 10> C     -1.422891   -0.906120   -0.118741
| 11> C     -2.818338   -0.286836    0.102065
| 12> C     -3.862057   -0.878223   -0.843498
| 13> P     -0.203779   -0.184225    1.081163
| 14> C      0.108517    1.547290    0.503101
| 15> C     -0.699972    2.544966    1.365435
| 16> C     -0.891844    3.913769    0.702771
| 17> C      0.257873    4.260433   -0.232135
| 18> C      0.403070    3.235688   -1.358230
| 19> C     -0.107458    1.839175   -0.983699
| 20> C      1.381265   -1.084945    0.760674
| 21> C      2.455499   -0.687494    1.791561
| 22> C      3.729427   -1.515882    1.620478
| 23> C      4.269019   -1.437379    0.196194
| 24> C      3.204555   -1.814977   -0.829200
| 25> C      1.939961   -0.971943   -0.659942
| 26> H     -4.645570   -2.793517   -1.449129
| 27> H     -4.323109   -2.658203    0.278099
| 28> H     -2.642112   -4.114835   -0.746713
| 29> H     -2.250774   -2.894822   -1.955493
| 30> H     -1.764134   -2.713367    1.056026
| 31> H     -0.559743   -2.911534   -0.211816
| 32> H     -1.097786   -0.687124   -1.141471
| 33> H     -2.798612    0.797873   -0.045538
| 34> H     -3.146045   -0.449895    1.138037
| 35> H     -3.612995   -0.608422   -1.877158
| 36> H     -4.843688   -0.441719   -0.627054
| 37> H      1.165921    1.745080    0.719515
| 38> H     -0.175860    2.682570    2.321235
| 39> H     -1.691907    2.155473    1.626574
| 40> H     -0.998252    4.683598    1.475464
| 41> H     -1.829962    3.912088    0.133310
| 42> H      0.113740    5.259183   -0.659451
| 43> H      1.190266    4.300791    0.345102
| 44> H     -0.140321    3.580855   -2.246252
| 45> H      1.459233    3.179062   -1.648668
| 46> H      0.379607    1.106291   -1.632896
| 47> H     -1.175038    1.790291   -1.228632
| 48> H      1.159249   -2.142885    0.948870
| 49> H      2.710978    0.375202    1.695652
| 50> H      2.079823   -0.827953    2.813167
| 51> H      4.493334   -1.165575    2.323810
| 52> H      3.519251   -2.562422    1.873542
| 53> H      5.134418   -2.101387    0.091900
| 54> H      4.622172   -0.418184   -0.003645
| 55> H      3.604326   -1.679085   -1.840484
| 56> H      2.953341   -2.877602   -0.724498
| 57> H      2.194913    0.068791   -0.890295
| 58> H      1.200550   -1.295526   -1.400731
| 59> **                         ****END OF INPUT****
 Total Charge           Charge          ....    0
 Multiplicity           Mult            ....    1
 Number of Electrons    NEL             ....  156
Dispersion correction           -0.104531564
FINAL SINGLE POINT ENERGY     -1046.654917484172
Dispersion correction             ... done (  0.1 sec)
Dispersion correction           -0.104482368
FINAL SINGLE POINT ENERGY     -1046.663898740944
Dispersion correction             ... done (  0.1 sec)
Dispersion correction           -0.103975287
FINAL SINGLE POINT ENERGY     -1046.664913697000
Dispersion correction             ... done (  0.1 sec)
FINAL SINGLE POINT ENERGY     -1046.664269929460
FINAL SINGLE POINT ENERGY     -1046.665448181596
FINAL SINGLE POINT ENERGY     -1046.665480363854
FINAL SINGLE POINT ENERGY     -1046.665490916117
FINAL SINGLE POINT ENERGY     -1046.665493002033
Dispersion correction             ... done (  0.1 sec)
Dispersion correction           -0.104162176
FINAL SINGLE POINT ENERGY     -1046.665493580859
Dispersion correction             ... done (  0.1 sec)
Dispersion correction           -0.104175203
FINAL SINGLE POINT ENERGY     -1046.665494712697
Dispersion correction             ... done (  0.1 sec)
                    ***********************HURRAY********************

CARTESIAN COORDINATES (ANGSTROEM)
---------------------------------
  C     -3.935234   -2.413170   -0.744957
  C     -2.550017   -3.044756   -0.944479
  C     -1.509405   -2.452287    0.020170
  C     -1.432179   -0.916749   -0.092985
  C     -2.830568   -0.292330    0.099888
  C     -3.865909   -0.884393   -0.868869
  P     -0.250634   -0.204206    1.193972
  C      0.070828    1.547333    0.543778
  C     -0.725147    2.575129    1.397408
  C     -0.888991    3.936679    0.682700
  C      0.328467    4.244985   -0.199416
  C      0.462451    3.203899   -1.338410
  C     -0.141426    1.832000   -0.953654
  C      1.370074   -1.081972    0.781108
  C      2.465107   -0.644144    1.775676
  C      3.755146   -1.460863    1.595433
  C      4.263223   -1.403025    0.146877
  C      3.173360   -1.837731   -0.844422
  C      1.889992   -1.008293   -0.664475
  H     -4.662725   -2.832232   -1.472302
  H     -4.314732   -2.679215    0.267826
  H     -2.601400   -4.147324   -0.818262
  H     -2.215337   -2.864738   -1.991473
  H     -1.773025   -2.725680    1.067889
  H     -0.516813   -2.906626   -0.180216
  H     -1.074834   -0.664809   -1.116517
  H     -2.780911    0.809581   -0.023000
  H     -3.157027   -0.472073    1.149337
  H     -3.587065   -0.613021   -1.912588
  H     -4.863422   -0.431660   -0.684113
  H      1.154389    1.695277    0.753928
  H     -0.204684    2.708292    2.369383
  H     -1.725903    2.165265    1.652938
  H     -1.053722    4.741214    1.429338
  H     -1.800909    3.923767    0.045765
  H      0.266366    5.270793   -0.618338
  H      1.240655    4.232186    0.437111
  H     -0.037921    3.575925   -2.258071
  H      1.534501    3.077383   -1.602355
  H      0.298266    1.037897   -1.586841
  H     -1.230442    1.824698   -1.173167
  H      1.140144   -2.149242    1.008122
  H      2.695771    0.434480    1.615807
  H      2.086756   -0.729674    2.816309
  H      4.537803   -1.101442    2.297197
  H      3.552171   -2.521101    1.869578
  H      5.171411   -2.031439    0.027858
  H      4.572824   -0.359126   -0.089239
  H      3.541549   -1.754565   -1.889430
  H      2.936365   -2.913675   -0.680617
  H      2.111480    0.052108   -0.917479
  H      1.111287   -1.347328   -1.379725

 Multiplicity           Mult            ....    1
 Number of Electrons    NEL             ....  156
 Basis Dimension        Dim             ....  435

ORBITAL ENERGIES
----------------

  NO   OCC          E(Eh)            E(eV)
   0   2.0000     -76.320720     -2076.7924
   1   2.0000      -9.914256      -269.7806
   2   2.0000      -9.914201      -269.7791
   3   2.0000      -9.913323      -269.7552
   4   2.0000      -9.911150      -269.6961
   5   2.0000      -9.910718      -269.6843
   6   2.0000      -9.910192      -269.6700
   7   2.0000      -9.909980      -269.6643
   8   2.0000      -9.909532      -269.6521
   9   2.0000      -9.909309      -269.6460
  10   2.0000      -9.909275      -269.6451
  11   2.0000      -9.909216      -269.6435
  12   2.0000      -9.909192      -269.6428
  13   2.0000      -9.909135      -269.6413
  14   2.0000      -9.908631      -269.6275
  15   2.0000      -9.907946      -269.6089
  16   2.0000      -9.907846      -269.6062
  17   2.0000      -9.907187      -269.5883
  18   2.0000      -9.907099      -269.5859
  19   2.0000      -6.289393      -171.1431
  20   2.0000      -4.510859      -122.7467
  21   2.0000      -4.510758      -122.7440
  22   2.0000      -4.507200      -122.6471
  23   2.0000      -0.756017       -20.5723
  24   2.0000      -0.747421       -20.3384
  25   2.0000      -0.745295       -20.2805
  26   2.0000      -0.683366       -18.5953
  27   2.0000      -0.664253       -18.0752
  28   2.0000      -0.663726       -18.0609
  29   2.0000      -0.658727       -17.9249
  30   2.0000      -0.658249       -17.9119
  31   2.0000      -0.654573       -17.8118
  32   2.0000      -0.572160       -15.5693
  33   2.0000      -0.548029       -14.9126
  34   2.0000      -0.542347       -14.7580
  35   2.0000      -0.539989       -14.6938
  36   2.0000      -0.533978       -14.5303
  37   2.0000      -0.530993       -14.4491
  38   2.0000      -0.494834       -13.4651
  39   2.0000      -0.489968       -13.3327
  40   2.0000      -0.478741       -13.0272
  41   2.0000      -0.458930       -12.4881
  42   2.0000      -0.434269       -11.8171
  43   2.0000      -0.425855       -11.5881
  44   2.0000      -0.420684       -11.4474
  45   2.0000      -0.409668       -11.1476
  46   2.0000      -0.391182       -10.6446
  47   2.0000      -0.390441       -10.6244
  48   2.0000      -0.388056       -10.5595
  49   2.0000      -0.386292       -10.5116
  50   2.0000      -0.385677       -10.4948
  51   2.0000      -0.380164       -10.3448
  52   2.0000      -0.367101        -9.9893
  53   2.0000      -0.352653        -9.5962
  54   2.0000      -0.344516        -9.3747
  55   2.0000      -0.340632        -9.2691
  56   2.0000      -0.336182        -9.1480
  57   2.0000      -0.334931        -9.1139
  58   2.0000      -0.331744        -9.0272
  59   2.0000      -0.328397        -8.9361
  60   2.0000      -0.319754        -8.7009
  61   2.0000      -0.314773        -8.5654
  62   2.0000      -0.312218        -8.4959
  63   2.0000      -0.306323        -8.3355
  64   2.0000      -0.302300        -8.2260
  65   2.0000      -0.298219        -8.1149
  66   2.0000      -0.296734        -8.0745
  67   2.0000      -0.295212        -8.0331
  68   2.0000      -0.283473        -7.7137
  69   2.0000      -0.277188        -7.5427
  70   2.0000      -0.271259        -7.3813
  71   2.0000      -0.267489        -7.2787
  72   2.0000      -0.265962        -7.2372
  73   2.0000      -0.262037        -7.1304
  74   2.0000      -0.258787        -7.0420
  75   2.0000      -0.236625        -6.4389
  76   2.0000      -0.236002        -6.4219
  77   2.0000      -0.182785        -4.9738
  78   0.0000       0.014328         0.3899
  79   0.0000       0.020057         0.5458
  80   0.0000       0.023063         0.6276
  81   0.0000       0.035904         0.9770
  82   0.0000       0.045186         1.2296

MULLIKEN ATOMIC CHARGES
-----------------------
   0 C :   -0.023415
   1 C :   -0.006337
   2 C :    0.017795
   3 C :   -0.250745
   4 C :    0.016561
   5 C :    0.000006
   6 P :    0.214737
   7 C :   -0.267509
   8 C :    0.035935
   9 C :   -0.015600
  10 C :   -0.025046
  11 C :   -0.008331
  12 C :    0.019621
  13 C :   -0.265717
  14 C :    0.027025
  15 C :   -0.004727
  16 C :   -0.027646
  17 C :   -0.003488
  18 C :    0.013975
  19 H :    0.017448
  20 H :    0.009932
  21 H :    0.017200
  22 H :    0.005969
  23 H :    0.015872
  24 H :    0.025328
  25 H :    0.024293
  26 H :    0.022656
  27 H :    0.015791
  28 H :    0.005815
  29 H :    0.017334
  30 H :    0.032768
  31 H :    0.015455
  32 H :    0.020381
  33 H :    0.018309
  34 H :    0.008763
  35 H :    0.017618
  36 H :    0.010627
  37 H :    0.013492
  38 H :    0.013294
  39 H :    0.019602
  40 H :    0.013203
  41 H :    0.035358
  42 H :    0.012228
  43 H :    0.023427
  44 H :    0.017372
  45 H :    0.008639
  46 H :    0.018215
  47 H :    0.008152
  48 H :    0.016169
  49 H :    0.006918
  50 H :    0.022776
  51 H :    0.022504
Sum of atomic charges:   -0.0000000

LOEWDIN ATOMIC CHARGES
----------------------
   0 C :   -0.047833
   1 C :   -0.045372
   2 C :   -0.051110
   3 C :   -0.169888
   4 C :   -0.052579
   5 C :   -0.045643
   6 P :    0.467583
   7 C :   -0.175746
   8 C :   -0.052115
   9 C :   -0.049230
  10 C :   -0.049731
  11 C :   -0.046145
  12 C :   -0.053341
  13 C :   -0.177007
  14 C :   -0.051277
  15 C :   -0.045848
  16 C :   -0.048269
  17 C :   -0.045198
  18 C :   -0.052409
  19 H :    0.026085
  20 H :    0.024323
  21 H :    0.026693
  22 H :    0.022912
  23 H :    0.023885
  24 H :    0.023850
  25 H :    0.014728
  26 H :    0.021580
  27 H :    0.023564
  28 H :    0.022669
  29 H :    0.026851
  30 H :    0.021735
  31 H :    0.026763
  32 H :    0.021344
  33 H :    0.028000
  34 H :    0.022655
  35 H :    0.027046
  36 H :    0.023318
  37 H :    0.025739
  38 H :    0.024491
  39 H :    0.023552
  40 H :    0.022719
  41 H :    0.023692
  42 H :    0.019220
  43 H :    0.026618
  44 H :    0.026818
  45 H :    0.023698
  46 H :    0.026541
  47 H :    0.022980
  48 H :    0.025949
  49 H :    0.022866
  50 H :    0.024539
  51 H :    0.023734

  Mayer bond orders larger than 0.100000
B(  0-C ,  1-C ) :   1.1010 B(  0-C ,  5-C ) :   1.0990 B(  0-C , 19-H ) :   0.9326
B(  0-C , 20-H ) :   0.9274 B(  1-C ,  2-C ) :   1.1014 B(  1-C , 21-H ) :   0.9301
B(  1-C , 22-H ) :   0.9247 B(  2-C ,  3-C ) :   1.0453 B(  2-C , 23-H ) :   0.9211
B(  2-C , 24-H ) :   0.9199 B(  3-C ,  4-C ) :   1.0487 B(  3-C ,  6-P ) :   0.9583
B(  3-C , 25-H ) :   0.8733 B(  4-C ,  5-C ) :   1.0990 B(  4-C , 26-H ) :   0.9163
B(  4-C , 27-H ) :   0.9192 B(  5-C , 28-H ) :   0.9246 B(  5-C , 29-H ) :   0.9301
B(  6-P ,  7-C ) :   0.9363 B(  6-P , 13-C ) :   0.9446 B(  7-C ,  8-C ) :   1.0331
B(  7-C , 12-C ) :   1.0861 B(  7-C , 30-H ) :   0.8838 B(  8-C ,  9-C ) :   1.0937
B(  8-C , 31-H ) :   0.9289 B(  8-C , 32-H ) :   0.9265 B(  9-C , 10-C ) :   1.1442
B(  9-C , 33-H ) :   0.9325 B(  9-C , 34-H ) :   0.9197 B( 10-C , 11-C ) :   1.0899
B( 10-C , 35-H ) :   0.9348 B( 10-C , 36-H ) :   0.9253 B( 11-C , 12-C ) :   1.0931
B( 11-C , 37-H ) :   0.9288 B( 11-C , 38-H ) :   0.9316 B( 12-C , 39-H ) :   0.9199
B( 12-C , 40-H ) :   0.9066 B( 13-C , 14-C ) :   1.0486 B( 13-C , 18-C ) :   1.0262
B( 13-C , 41-H ) :   0.8930 B( 14-C , 15-C ) :   1.0989 B( 14-C , 42-H ) :   0.9183
B( 14-C , 43-H ) :   0.9216 B( 15-C , 16-C ) :   1.0983 B( 15-C , 44-H ) :   0.9305
B( 15-C , 45-H ) :   0.9268 B( 16-C , 17-C ) :   1.0983 B( 16-C , 46-H ) :   0.9317
B( 16-C , 47-H ) :   0.9281 B( 17-C , 18-C ) :   1.0916 B( 17-C , 48-H ) :   0.9300
B( 17-C , 49-H ) :   0.9260 B( 18-C , 50-H ) :   0.9158 B( 18-C , 51-H ) :   0.9220

Dispersion correction           -0.104171602
FINAL SINGLE POINT ENERGY     -1046.665495004540

DIPOLE MOMENT
-------------

Method             : SCF
Type of density    : Electron Density
Multiplicity       :   1
Irrep              :   0
Energy             : -1046.5613234020563596 Eh
Relativity type    :
Basis              : AO
                                X                 Y                 Z
Electronic contribution:     -1.326185130      -1.241722093       6.400183779
Nuclear contribution   :      1.476572346       1.241227007      -6.851748087
                        -----------------------------------------
Total Dipole Moment    :      0.150387216      -0.000495087      -0.451564308
                        -----------------------------------------
Magnitude (a.u.)       :      0.475948405
Magnitude (Debye)      :      1.209764704

Rotational constants in cm-1:             0.010956             0.009385             0.005963
Rotational constants in MHz :           328.462301           281.359391           178.776904

                             ****ORCA TERMINATED NORMALLY****
TOTAL RUN TIME: 0 days 0 hours 3 minutes 56 seconds 873 msec
