                         Program Version 6.0.0  -   RELEASE   -
|  1> ! RI BP86 def2-SVP D3BJ TIGHTSCF Opt
|  2> %pal
|  3> nprocs 6
|  4> end
|  5>
|  6> * xyz 0 1
|  7> C      3.229864   -1.206882   -0.699023
|  8> C      3.025283   -1.089084    0.672654
|  9> C      1.801058   -0.624707    1.160035
| 10> C      0.764748   -0.271789    0.282921
| 11> C      0.986304   -0.396013   -1.095072
| 12> C      2.211133   -0.860614   -1.582529
| 13> P     -0.798797    0.324134    0.996285
| 14> C     -2.053101   -0.750605    0.152697
| 15> C     -1.985436   -2.203158    0.622394
| 16> C     -3.025597   -3.002306   -0.037763
| 17> N     -3.850956   -3.623938   -0.565420
| 18> C     -1.078164    1.906468    0.069916
| 19> C     -0.078424    2.994167    0.460470
| 20> C     -0.368821    4.238408   -0.263349
| 21> N     -0.607394    5.215990   -0.840828
| 22> H      4.182102   -1.568121   -1.079188
| 23> H      3.818314   -1.358468    1.365805
| 24> H      1.668821   -0.542619    2.237491
| 25> H      0.216303   -0.135967   -1.816759
| 26> H      2.369389   -0.952077   -2.654497
| 27> H     -1.939672   -0.696988   -0.936173
| 28> H     -3.045019   -0.339575    0.379150
| 29> H     -1.004089   -2.638344    0.400130
| 30> H     -2.119087   -2.260248    1.709548
| 31> H     -1.048201    1.732610   -1.011866
| 32> H     -2.095941    2.247018    0.298566
| 33> H      0.946985    2.679065    0.234465
| 34> H     -0.121603    3.183642    1.539942
| 35> **                         ****END OF INPUT****
 Total Charge           Charge          ....    0
 Multiplicity           Mult            ....    1
 Number of Electrons    NEL             ....  114
Dispersion correction           -0.056939984
FINAL SINGLE POINT ENERGY      -915.489120674158
Dispersion correction             ... done (  0.1 sec)
Dispersion correction           -0.056973774
FINAL SINGLE POINT ENERGY      -915.493475964111
Dispersion correction             ... done (  0.1 sec)
Dispersion correction           -0.057209664
FINAL SINGLE POINT ENERGY      -915.494002359888
Dispersion correction             ... done (  0.1 sec)
FINAL SINGLE POINT ENERGY      -915.494121092981
Dispersion correction             ... done (  0.1 sec)
Dispersion correction           -0.057183463
FINAL SINGLE POINT ENERGY      -915.494147411063
Dispersion correction             ... done (  0.1 sec)
Dispersion correction           -0.057172700
FINAL SINGLE POINT ENERGY      -915.494151589861
Dispersion correction             ... done (  0.1 sec)
                    ***********************HURRAY********************

CARTESIAN COORDINATES (ANGSTROEM)
---------------------------------
  C      3.178969   -1.183951   -0.690769
  C      2.988862   -1.068873    0.695338
  C      1.761754   -0.604819    1.199403
  C      0.712335   -0.251299    0.324881
  C      0.915810   -0.371444   -1.067967
  C      2.140164   -0.834394   -1.572405
  P     -0.873496    0.351771    1.079252
  C     -2.102104   -0.737907    0.165287
  C     -1.939385   -2.213263    0.581955
  C     -2.904434   -3.093840   -0.079830
  N     -3.686447   -3.776495   -0.622576
  C     -1.126624    1.928667    0.088100
  C     -0.029030    2.961309    0.413177
  C     -0.217000    4.225709   -0.301395
  N     -0.389287    5.226743   -0.884829
  H      4.138961   -1.547216   -1.088140
  H      3.798851   -1.341482    1.389041
  H      1.609210   -0.513317    2.286782
  H      0.112757   -0.102227   -1.772833
  H      2.286018   -0.923476   -2.659856
  H     -1.988969   -0.636831   -0.934859
  H     -3.119730   -0.377157    0.423473
  H     -0.914629   -2.568490    0.337291
  H     -2.053220   -2.322112    1.682356
  H     -1.144343    1.720138   -1.002528
  H     -2.124428    2.332215    0.359815
  H      0.970055    2.552704    0.146996
  H     -0.000618    3.169337    1.504841

 Multiplicity           Mult            ....    1
 Number of Electrons    NEL             ....  114
 Basis Dimension        Dim             ....  279

ORBITAL ENERGIES
----------------

  NO   OCC          E(Eh)            E(eV)
   0   2.0000     -76.366225     -2078.0306
   1   2.0000     -14.012716      -381.3054
   2   2.0000     -14.012697      -381.3049
   3   2.0000      -9.977230      -271.4942
   4   2.0000      -9.977207      -271.4936
   5   2.0000      -9.956224      -270.9226
   6   2.0000      -9.956212      -270.9223
   7   2.0000      -9.954860      -270.8855
   8   2.0000      -9.954832      -270.8848
   9   2.0000      -9.948742      -270.7190
  10   2.0000      -9.948495      -270.7123
  11   2.0000      -9.946484      -270.6576
  12   2.0000      -9.945403      -270.6282
  13   2.0000      -9.945179      -270.6221
  14   2.0000      -9.944208      -270.5956
  15   2.0000      -6.335590      -172.4002
  16   2.0000      -4.557113      -124.0054
  17   2.0000      -4.556902      -123.9996
  18   2.0000      -4.553283      -123.9011
  19   2.0000      -0.816596       -22.2207
  20   2.0000      -0.816293       -22.2125
  21   2.0000      -0.796563       -21.6756
  22   2.0000      -0.752148       -20.4670
  23   2.0000      -0.737756       -20.0754
  24   2.0000      -0.698526       -19.0079
  25   2.0000      -0.693432       -18.8692
  26   2.0000      -0.648716       -17.6525
  27   2.0000      -0.601867       -16.3776
  28   2.0000      -0.571478       -15.5507
  29   2.0000      -0.563156       -15.3242
  30   2.0000      -0.518805       -14.1174
  31   2.0000      -0.482721       -13.1355
  32   2.0000      -0.481379       -13.0990
  33   2.0000      -0.464193       -12.6313
  34   2.0000      -0.451838       -12.2951
  35   2.0000      -0.446953       -12.1622
  36   2.0000      -0.428895       -11.6708
  37   2.0000      -0.422330       -11.4922
  38   2.0000      -0.404215       -10.9993
  39   2.0000      -0.398278       -10.8377
  40   2.0000      -0.383115       -10.4251
  41   2.0000      -0.379468       -10.3258
  42   2.0000      -0.361240        -9.8298
  43   2.0000      -0.357255        -9.7214
  44   2.0000      -0.354647        -9.6504
  45   2.0000      -0.336432        -9.1548
  46   2.0000      -0.328575        -8.9410
  47   2.0000      -0.310754        -8.4560
  48   2.0000      -0.305777        -8.3206
  49   2.0000      -0.305145        -8.3034
  50   2.0000      -0.298094        -8.1116
  51   2.0000      -0.293073        -7.9749
  52   2.0000      -0.292837        -7.9685
  53   2.0000      -0.290630        -7.9085
  54   2.0000      -0.257162        -6.9977
  55   2.0000      -0.254980        -6.9384
  56   2.0000      -0.232468        -6.3258
  57   0.0000      -0.082506        -2.2451
  58   0.0000      -0.069040        -1.8787
  59   0.0000      -0.025625        -0.6973
  60   0.0000      -0.023800        -0.6476
  61   0.0000      -0.010612        -0.2888

MULLIKEN ATOMIC CHARGES
-----------------------
   0 C :    0.006865
   1 C :    0.002282
   2 C :    0.013537
   3 C :   -0.172710
   4 C :   -0.003263
   5 C :    0.007179
   6 P :    0.197315
   7 C :   -0.198580
   8 C :    0.061166
   9 C :   -0.261597
  10 N :    0.049679
  11 C :   -0.197908
  12 C :    0.060714
  13 C :   -0.261881
  14 N :    0.049777
  15 H :    0.016798
  16 H :    0.014922
  17 H :    0.006931
  18 H :    0.004869
  19 H :    0.014272
  20 H :    0.063480
  21 H :    0.080622
  22 H :    0.078739
  23 H :    0.071707
  24 H :    0.063481
  25 H :    0.080875
  26 H :    0.079162
  27 H :    0.071567
Sum of atomic charges:   -0.0000000

LOEWDIN ATOMIC CHARGES
----------------------
   0 C :   -0.018083
   1 C :   -0.025525
   2 C :   -0.034864
   3 C :   -0.188849
   4 C :   -0.035595
   5 C :   -0.023520
   6 P :    0.463720
   7 C :   -0.167981
   8 C :   -0.071414
   9 C :   -0.040467
  10 N :   -0.073097
  11 C :   -0.167982
  12 C :   -0.071375
  13 C :   -0.040472
  14 N :   -0.073106
  15 H :    0.038043
  16 H :    0.037782
  17 H :    0.031901
  18 H :    0.029410
  19 H :    0.038124
  20 H :    0.029964
  21 H :    0.040899
  22 H :    0.063417
  23 H :    0.062335
  24 H :    0.030041
  25 H :    0.040940
  26 H :    0.063502
  27 H :    0.062253

  Mayer bond orders larger than 0.100000
B(  0-C ,  1-C ) :   1.3898 B(  0-C ,  5-C ) :   1.3703 B(  0-C , 15-H ) :   0.9762
B(  1-C ,  2-C ) :   1.3814 B(  1-C , 16-H ) :   0.9774 B(  2-C ,  3-C ) :   1.3805
B(  2-C , 17-H ) :   0.9758 B(  3-C ,  4-C ) :   1.3367 B(  3-C ,  6-P ) :   0.9332
B(  4-C ,  5-C ) :   1.4147 B(  4-C , 18-H ) :   0.9692 B(  5-C , 19-H ) :   0.9749
B(  6-P ,  7-C ) :   0.9691 B(  6-P , 11-C ) :   0.9682 B(  7-C ,  8-C ) :   1.0561
B(  7-C , 20-H ) :   0.9200 B(  7-C , 21-H ) :   0.9356 B(  8-C ,  9-C ) :   1.1563
B(  8-C , 22-H ) :   0.8875 B(  8-C , 23-H ) :   0.8918 B(  9-C , 10-N ) :   3.0253
B( 11-C , 12-C ) :   1.0562 B( 11-C , 24-H ) :   0.9201 B( 11-C , 25-H ) :   0.9358
B( 12-C , 13-C ) :   1.1567 B( 12-C , 26-H ) :   0.8873 B( 12-C , 27-H ) :   0.8916
B( 13-C , 14-N ) :   3.0253

Dispersion correction           -0.057176601
FINAL SINGLE POINT ENERGY      -915.494152659970

DIPOLE MOMENT
-------------

Method             : SCF
Type of density    : Electron Density
Multiplicity       :   1
Irrep              :   0
Energy             :  -915.4369760591030172 Eh
Relativity type    :
Basis              : AO
                                X                 Y                 Z
Electronic contribution:     -2.992754261       1.146967890       1.639462186
Nuclear contribution   :      4.427095135      -1.651447010      -0.868123719
                        -----------------------------------------
Total Dipole Moment    :      1.434340874      -0.504479120       0.771338468
                        -----------------------------------------
Magnitude (a.u.)       :      1.704932831
Magnitude (Debye)      :      4.333594859

Rotational constants in cm-1:             0.018258             0.011722             0.008236
Rotational constants in MHz :           547.350128           351.412463           246.914251

                             ****ORCA TERMINATED NORMALLY****
TOTAL RUN TIME: 0 days 0 hours 1 minutes 16 seconds 159 msec
