                         Program Version 6.0.0  -   RELEASE   -
|  1> ! RI BP86 def2-SVP D3BJ TIGHTSCF Opt
|  2> %pal
|  3> nprocs 6
|  4> end
|  5>
|  6> * xyz 0 1
|  7> C     -0.447664    1.601124   -1.654014
|  8> C     -0.701314    1.868456   -0.164046
|  9> C      0.244331    3.020615    0.266976
| 10> C     -2.136946    2.396703    0.046499
| 11> P     -0.398943    0.405417    0.960764
| 12> C      1.359878    0.000641    0.696610
| 13> C      2.294721    0.418000    1.657449
| 14> C      3.654543    0.132168    1.508766
| 15> C      4.099891   -0.579288    0.398125
| 16> C      3.186314   -1.005991   -0.561958
| 17> C      1.826597   -0.719137   -0.412641
| 18> C     -1.251080   -1.094993    0.384365
| 19> C     -2.298948   -1.130359   -0.541068
| 20> C     -2.914399   -2.335639   -0.905301
| 21> C     -2.502712   -3.535693   -0.336785
| 22> C     -1.480285   -3.530212    0.602815
| 23> C     -0.870182   -2.324181    0.962223
| 24> H     -0.689489    2.488508   -2.251940
| 25> H      0.602885    1.368097   -1.855664
| 26> H     -1.045278    0.780407   -2.054532
| 27> H      1.297939    2.780163    0.085907
| 28> H      0.135707    3.263333    1.331159
| 29> H      0.029235    3.935460   -0.298868
| 30> H     -2.321199    2.655114    1.096781
| 31> H     -2.907484    1.681753   -0.247470
| 32> H     -2.309276    3.304871   -0.544009
| 33> H      1.971399    0.972828    2.536102
| 34> H      4.363371    0.464674    2.262457
| 35> H      5.156865   -0.803278    0.282074
| 36> H      3.528575   -1.565191   -1.428755
| 37> H      1.136464   -1.068641   -1.177526
| 38> H     -2.674767   -0.230099   -1.009359
| 39> H     -3.722355   -2.329928   -1.632696
| 40> H     -2.982385   -4.468723   -0.618716
| 41> H     -1.155102   -4.459166    1.063340
| 42> H     -0.078905   -2.357811    1.710626
| 43> **                         ****END OF INPUT****
 Total Charge           Charge          ....    0
 Multiplicity           Mult            ....    1
 Number of Electrons    NEL             ....  130
Dispersion correction           -0.081081391
FINAL SINGLE POINT ENERGY      -962.041520778796
Dispersion correction             ... done (  0.1 sec)
Dispersion correction           -0.082042395
FINAL SINGLE POINT ENERGY      -962.048790104097
Dispersion correction             ... done (  0.1 sec)
Dispersion correction           -0.082153337
FINAL SINGLE POINT ENERGY      -962.049489124551
Dispersion correction             ... done (  0.1 sec)
FINAL SINGLE POINT ENERGY      -962.048462444000
FINAL SINGLE POINT ENERGY      -962.050089498578
FINAL SINGLE POINT ENERGY      -962.049666980513
FINAL SINGLE POINT ENERGY      -962.050233786353
FINAL SINGLE POINT ENERGY      -962.050193947737
FINAL SINGLE POINT ENERGY      -962.050294750253
FINAL SINGLE POINT ENERGY      -962.050306054203
FINAL SINGLE POINT ENERGY      -962.050325150862
FINAL SINGLE POINT ENERGY      -962.050336249538
Dispersion correction             ... done (  0.1 sec)
Dispersion correction           -0.081967605
FINAL SINGLE POINT ENERGY      -962.050341985818
Dispersion correction             ... done (  0.1 sec)
Dispersion correction           -0.081968062
FINAL SINGLE POINT ENERGY      -962.050343584125
Dispersion correction             ... done (  0.1 sec)
                    ***********************HURRAY********************

CARTESIAN COORDINATES (ANGSTROEM)
---------------------------------
  C     -0.507173    1.407859   -1.672207
  C     -0.692019    1.836930   -0.210861
  C      0.362892    2.901174    0.153330
  C     -2.090824    2.444529    0.024291
  P     -0.456161    0.418891    1.075880
  C      1.332382    0.004825    0.811245
  C      2.251135    0.483864    1.770419
  C      3.630952    0.269801    1.616311
  C      4.110861   -0.439842    0.503620
  C      3.205069   -0.936765   -0.450367
  C      1.827391   -0.717150   -0.298772
  C     -1.263360   -1.089032    0.367926
  C     -2.471738   -1.061764   -0.364946
  C     -3.104440   -2.250048   -0.766326
  C     -2.552628   -3.496650   -0.433417
  C     -1.363834   -3.542024    0.315134
  C     -0.731295   -2.356130    0.714196
  H     -0.672512    2.278319   -2.344611
  H      0.521899    1.040068   -1.854800
  H     -1.214707    0.610792   -1.973478
  H      1.393368    2.550854   -0.052127
  H      0.304671    3.187380    1.224570
  H      0.186224    3.817104   -0.450504
  H     -2.230200    2.733157    1.086123
  H     -2.913920    1.754494   -0.245163
  H     -2.210696    3.357078   -0.598825
  H      1.871932    1.031434    2.648093
  H      4.333208    0.651729    2.373413
  H      5.191171   -0.613959    0.382514
  H      3.575444   -1.500531   -1.320790
  H      1.125673   -1.124550   -1.041686
  H     -2.936794   -0.102978   -0.630761
  H     -4.039402   -2.195686   -1.345404
  H     -3.047999   -4.427426   -0.749082
  H     -0.922371   -4.511853    0.592907
  H      0.197803   -2.413894    1.301845

 Multiplicity           Mult            ....    1
 Number of Electrons    NEL             ....  130
 Basis Dimension        Dim             ....  337

ORBITAL ENERGIES
----------------

  NO   OCC          E(Eh)            E(eV)
   0   2.0000     -76.339658     -2077.3077
   1   2.0000      -9.936242      -270.3789
   2   2.0000      -9.925728      -270.0928
   3   2.0000      -9.925272      -270.0804
   4   2.0000      -9.925031      -270.0738
   5   2.0000      -9.924068      -270.0476
   6   2.0000      -9.923987      -270.0454
   7   2.0000      -9.923824      -270.0410
   8   2.0000      -9.923722      -270.0382
   9   2.0000      -9.920617      -269.9537
  10   2.0000      -9.919956      -269.9357
  11   2.0000      -9.919286      -269.9175
  12   2.0000      -9.919048      -269.9110
  13   2.0000      -9.918312      -269.8910
  14   2.0000      -9.911891      -269.7163
  15   2.0000      -9.908872      -269.6341
  16   2.0000      -9.906469      -269.5687
  17   2.0000      -6.308005      -171.6496
  18   2.0000      -4.529721      -123.2600
  19   2.0000      -4.529176      -123.2452
  20   2.0000      -4.525842      -123.1544
  21   2.0000      -0.775889       -21.1130
  22   2.0000      -0.768437       -20.9102
  23   2.0000      -0.734524       -19.9874
  24   2.0000      -0.683890       -18.6096
  25   2.0000      -0.671918       -18.2838
  26   2.0000      -0.668109       -18.1802
  27   2.0000      -0.664511       -18.0823
  28   2.0000      -0.614134       -16.7114
  29   2.0000      -0.611477       -16.6391
  30   2.0000      -0.580404       -15.7936
  31   2.0000      -0.544644       -14.8205
  32   2.0000      -0.538946       -14.6655
  33   2.0000      -0.533282       -14.5114
  34   2.0000      -0.513470       -13.9722
  35   2.0000      -0.479844       -13.0572
  36   2.0000      -0.463783       -12.6202
  37   2.0000      -0.441290       -12.0081
  38   2.0000      -0.415531       -11.3072
  39   2.0000      -0.408154       -11.1064
  40   2.0000      -0.403296       -10.9742
  41   2.0000      -0.400760       -10.9052
  42   2.0000      -0.393789       -10.7155
  43   2.0000      -0.392671       -10.6851
  44   2.0000      -0.384324       -10.4580
  45   2.0000      -0.377051       -10.2601
  46   2.0000      -0.369538       -10.0556
  47   2.0000      -0.361852        -9.8465
  48   2.0000      -0.345454        -9.4003
  49   2.0000      -0.341588        -9.2951
  50   2.0000      -0.334079        -9.0907
  51   2.0000      -0.328763        -8.9461
  52   2.0000      -0.328101        -8.9281
  53   2.0000      -0.320177        -8.7125
  54   2.0000      -0.307240        -8.3604
  55   2.0000      -0.306184        -8.3317
  56   2.0000      -0.297310        -8.0902
  57   2.0000      -0.295327        -8.0363
  58   2.0000      -0.279462        -7.6045
  59   2.0000      -0.266531        -7.2527
  60   2.0000      -0.244087        -6.6419
  61   2.0000      -0.236609        -6.4385
  62   2.0000      -0.234359        -6.3772
  63   2.0000      -0.228495        -6.2177
  64   2.0000      -0.187949        -5.1144
  65   0.0000      -0.058668        -1.5964
  66   0.0000      -0.050095        -1.3631
  67   0.0000      -0.048757        -1.3267
  68   0.0000      -0.038648        -1.0517
  69   0.0000       0.016098         0.4380

MULLIKEN ATOMIC CHARGES
-----------------------
   0 C :    0.045665
   1 C :   -0.413154
   2 C :    0.015030
   3 C :    0.040210
   4 P :    0.283690
   5 C :   -0.161431
   6 C :    0.012071
   7 C :    0.000056
   8 C :    0.002956
   9 C :   -0.000864
  10 C :    0.007807
  11 C :   -0.097174
  12 C :   -0.022589
  13 C :    0.002864
  14 C :   -0.002519
  15 C :    0.000040
  16 C :   -0.019898
  17 H :    0.019907
  18 H :    0.029980
  19 H :    0.024982
  20 H :    0.051902
  21 H :    0.031706
  22 H :    0.024678
  23 H :    0.035799
  24 H :    0.026307
  25 H :    0.024530
  26 H :    0.001310
  27 H :    0.004847
  28 H :    0.005754
  29 H :    0.003125
  30 H :    0.021387
  31 H :   -0.012625
  32 H :   -0.001985
  33 H :    0.001822
  34 H :    0.002493
  35 H :    0.011323
Sum of atomic charges:   -0.0000000

LOEWDIN ATOMIC CHARGES
----------------------
   0 C :   -0.068947
   1 C :   -0.167815
   2 C :   -0.068258
   3 C :   -0.069211
   4 P :    0.495594
   5 C :   -0.174151
   6 C :   -0.034126
   7 C :   -0.033042
   8 C :   -0.027456
   9 C :   -0.032962
  10 C :   -0.030263
  11 C :   -0.173104
  12 C :   -0.046394
  13 C :   -0.031390
  14 C :   -0.036418
  15 C :   -0.031414
  16 C :   -0.036522
  17 H :    0.027452
  18 H :    0.029235
  19 H :    0.026852
  20 H :    0.031113
  21 H :    0.025957
  22 H :    0.028509
  23 H :    0.029494
  24 H :    0.022628
  25 H :    0.028225
  26 H :    0.028959
  27 H :    0.033613
  28 H :    0.033222
  29 H :    0.033350
  30 H :    0.034034
  31 H :    0.023712
  32 H :    0.032255
  33 H :    0.031845
  34 H :    0.032979
  35 H :    0.032445

  Mayer bond orders larger than 0.100000
B(  0-C ,  1-C ) :   1.0251 B(  0-C , 17-H ) :   0.9475 B(  0-C , 18-H ) :   0.9487
B(  0-C , 19-H ) :   0.9527 B(  1-C ,  2-C ) :   1.0290 B(  1-C ,  3-C ) :   1.0247
B(  1-C ,  4-P ) :   0.9198 B(  2-C , 20-H ) :   0.9537 B(  2-C , 21-H ) :   0.9554
B(  2-C , 22-H ) :   0.9522 B(  3-C , 23-H ) :   0.9531 B(  3-C , 24-H ) :   0.9566
B(  3-C , 25-H ) :   0.9486 B(  4-P ,  5-C ) :   0.9314 B(  4-P , 11-C ) :   0.9285
B(  5-C ,  6-C ) :   1.3726 B(  5-C , 10-C ) :   1.3607 B(  6-C ,  7-C ) :   1.3832
B(  6-C , 26-H ) :   0.9725 B(  7-C ,  8-C ) :   1.3840 B(  7-C , 27-H ) :   0.9764
B(  8-C ,  9-C ) :   1.3692 B(  8-C , 28-H ) :   0.9760 B(  9-C , 10-C ) :   1.4015
B(  9-C , 29-H ) :   0.9751 B( 10-C , 30-H ) :   0.9597 B( 11-C , 12-C ) :   1.3664
B( 11-C , 16-C ) :   1.3541 B( 12-C , 13-C ) :   1.4109 B( 12-C , 31-H ) :   0.9595
B( 13-C , 14-C ) :   1.3804 B( 13-C , 32-H ) :   0.9723 B( 14-C , 15-C ) :   1.3681
B( 14-C , 33-H ) :   0.9764 B( 15-C , 16-C ) :   1.4149 B( 15-C , 34-H ) :   0.9746
B( 16-C , 35-H ) :   0.9684

Dispersion correction           -0.081965017
FINAL SINGLE POINT ENERGY      -962.050344075637

DIPOLE MOMENT
-------------

Method             : SCF
Type of density    : Electron Density
Multiplicity       :   1
Irrep              :   0
Energy             :  -961.9683790589933778 Eh
Relativity type    :
Basis              : AO
                                X                 Y                 Z
Electronic contribution:      1.799449678      -9.459968842       7.212513717
Nuclear contribution   :     -1.526704639       9.520449344      -7.636667296
                        -----------------------------------------
Total Dipole Moment    :      0.272745039       0.060480502      -0.424153579
                        -----------------------------------------
Magnitude (a.u.)       :      0.507891726
Magnitude (Debye)      :      1.290958174

Rotational constants in cm-1:             0.019011             0.011991             0.008555
Rotational constants in MHz :           569.939009           359.467926           256.475652

                             ****ORCA TERMINATED NORMALLY****
TOTAL RUN TIME: 0 days 0 hours 3 minutes 53 seconds 291 msec
