                         Program Version 6.0.0  -   RELEASE   -
|  1> ! RIJCOSX M062X def2-TZVP D3ZERO NormalSCF
|  2> %pal
|  3> nprocs 6
|  4> end
|  5>
|  6> * xyz 0 1
|  7>   C           1.43654162554470     -0.71532220734435     -0.46051299422252
|  8>   P           0.16845102909007      0.02561067558033      0.64701940635190
|  9>   O           0.57849696003686      0.08803298151262      2.10253183878361
| 10>   C          -1.34868811442695     -0.96640300562477      0.33466176769443
| 11>   C          -0.19358124797587      1.66559642222128     -0.10322811780677
| 12>   H           2.36695675773891     -0.11952433415044     -0.37846525759692
| 13>   H           1.10901724530849     -0.74681174607938     -1.51895210243186
| 14>   H           1.65324078830740     -1.74345965106080     -0.10932780506559
| 15>   H          -1.62348693613103     -0.99410721699365     -0.73879060582186
| 16>   H          -1.17610378655281     -1.99819150246823      0.69936166149593
| 17>   H          -2.18208952688199     -0.52890313300519      0.91898352665312
| 18>   H           0.71053320010619      2.29996614100236     -0.01654764038200
| 19>   H          -0.49118748530681      1.58851511634219     -1.16814664675428
| 20>   H          -1.00810050885715      2.14500146006802      0.47480196910281
| 21> **                         ****END OF INPUT****

CARTESIAN COORDINATES (ANGSTROEM)
---------------------------------
  C      1.436542   -0.715322   -0.460513
  P      0.168451    0.025611    0.647019
  O      0.578497    0.088033    2.102532
  C     -1.348688   -0.966403    0.334662
  C     -0.193581    1.665596   -0.103228
  H      2.366957   -0.119524   -0.378465
  H      1.109017   -0.746812   -1.518952
  H      1.653241   -1.743460   -0.109328
  H     -1.623487   -0.994107   -0.738791
  H     -1.176104   -1.998192    0.699362
  H     -2.182090   -0.528903    0.918984
  H      0.710533    2.299966   -0.016548
  H     -0.491187    1.588515   -1.168147
  H     -1.008101    2.145001    0.474802

 Total Charge           Charge          ....    0
 Multiplicity           Mult            ....    1
 Number of Electrons    NEL             ....   50
 Basis Dimension        Dim             ....  215

ORBITAL ENERGIES
----------------

  NO   OCC          E(Eh)            E(eV)
   0   2.0000     -78.092200     -2124.9968
   1   2.0000     -19.558404      -532.2112
   2   2.0000     -10.549116      -287.0561
   3   2.0000     -10.549111      -287.0559
   4   2.0000     -10.549100      -287.0556
   5   2.0000      -6.897939      -187.7025
   6   2.0000      -5.015083      -136.4673
   7   2.0000      -5.015083      -136.4673
   8   2.0000      -5.013263      -136.4178
   9   2.0000      -1.055628       -28.7251
  10   2.0000      -0.857307       -23.3285
  11   2.0000      -0.796878       -21.6841
  12   2.0000      -0.796870       -21.6839
  13   2.0000      -0.607622       -16.5342
  14   2.0000      -0.515219       -14.0198
  15   2.0000      -0.512319       -13.9409
  16   2.0000      -0.512304       -13.9405
  17   2.0000      -0.485434       -13.2093
  18   2.0000      -0.485400       -13.2084
  19   2.0000      -0.464183       -12.6311
  20   2.0000      -0.424521       -11.5518
  21   2.0000      -0.424496       -11.5511
  22   2.0000      -0.420676       -11.4472
  23   2.0000      -0.329172        -8.9572
  24   2.0000      -0.329149        -8.9566
  25   0.0000       0.044267         1.2046
  26   0.0000       0.087103         2.3702
  27   0.0000       0.096814         2.6344
  28   0.0000       0.096824         2.6347
  29   0.0000       0.115262         3.1364

MULLIKEN ATOMIC CHARGES
-----------------------
   0 C :   -0.505234
   1 P :    0.645960
   2 O :   -0.600038
   3 C :   -0.505553
   4 C :   -0.505206
   5 H :    0.169436
   6 H :    0.151421
   7 H :    0.169294
   8 H :    0.151428
   9 H :    0.169332
  10 H :    0.169258
  11 H :    0.169268
  12 H :    0.151546
  13 H :    0.169086
Sum of atomic charges:   -0.0000000

LOEWDIN ATOMIC CHARGES
----------------------
   0 C :   -0.436053
   1 P :    0.478194
   2 O :   -0.329013
   3 C :   -0.436053
   4 C :   -0.436047
   5 H :    0.131498
   6 H :    0.123367
   7 H :    0.131474
   8 H :    0.123398
   9 H :    0.131483
  10 H :    0.131464
  11 H :    0.131478
  12 H :    0.123351
  13 H :    0.131461

  Mayer bond orders larger than 0.100000
B(  0-C ,  1-P ) :   0.9401 B(  0-C ,  5-H ) :   0.9455 B(  0-C ,  6-H ) :   0.9378
B(  0-C ,  7-H ) :   0.9455 B(  1-P ,  2-O ) :   1.9454 B(  1-P ,  3-C ) :   0.9411
B(  1-P ,  4-C ) :   0.9407 B(  3-C ,  8-H ) :   0.9376 B(  3-C ,  9-H ) :   0.9454
B(  3-C , 10-H ) :   0.9455 B(  4-C , 11-H ) :   0.9455 B(  4-C , 12-H ) :   0.9377
B(  4-C , 13-H ) :   0.9455

Dispersion correction           -0.000255111
FINAL SINGLE POINT ENERGY      -536.337996209319

DIPOLE MOMENT
-------------

Method             : SCF
Type of density    : Electron Density
Multiplicity       :   1
Irrep              :   0
Energy             :  -536.3377410984199969 Eh
Relativity type    :
Basis              : AO
                                X                 Y                 Z
Electronic contribution:      1.293569688       0.196468889       4.592610799
Nuclear contribution   :     -1.775159533      -0.269961967      -6.302468783
                        -----------------------------------------
Total Dipole Moment    :     -0.481589845      -0.073493078      -1.709857984
                        -----------------------------------------
Magnitude (a.u.)       :      1.777904479
Magnitude (Debye)      :      4.519074048

Rotational constants in cm-1:             0.120929             0.120921             0.116661
Rotational constants in MHz :          3625.356486          3625.122244          3497.414770

                             ****ORCA TERMINATED NORMALLY****
TOTAL RUN TIME: 0 days 0 hours 0 minutes 12 seconds 756 msec
