                         Program Version 6.0.0  -   RELEASE   -
|  1> ! RI BP86 def2-SVP D3BJ TIGHTSCF Opt
|  2> %pal
|  3> nprocs 6
|  4> end
|  5>
|  6> * xyz 0 1
|  7> C     -3.276795   -2.804494    0.137050
|  8> C     -2.559058   -3.016061   -1.035766
|  9> C     -1.603605   -2.083073   -1.448333
| 10> C     -1.344687   -0.923152   -0.695243
| 11> C     -2.082793   -0.728145    0.481428
| 12> C     -3.039520   -1.661283    0.894744
| 13> P     -0.079270    0.231635   -1.317060
| 14> C     -0.289797    1.720163   -0.286615
| 15> C     -1.257197    2.661742   -0.681843
| 16> C     -1.476158    3.827983    0.056728
| 17> C     -0.729325    4.075452    1.204168
| 18> C      0.234401    3.157647    1.611900
| 19> C      0.452701    1.990450    0.872528
| 20> C      1.495972   -0.482656   -0.741067
| 21> C      2.689244    0.050355   -1.263518
| 22> C      3.937120   -0.445009   -0.872072
| 23> C      4.006844   -1.485490    0.048074
| 24> C      2.842338   -2.032408    0.577826
| 25> C      1.595403   -1.533480    0.183820
| 26> Br     5.689846   -2.158381    0.581990
| 27> H     -4.021322   -3.527545    0.459271
| 28> H     -2.741075   -3.905614   -1.633132
| 29> H     -1.056913   -2.274545   -2.370347
| 30> H     -1.928469    0.148729    1.104866
| 31> H     -3.599530   -1.490177    1.810671
| 32> H     -1.857274    2.493210   -1.574672
| 33> H     -2.230021    4.540772   -0.267151
| 34> H     -0.897157    4.981982    1.779494
| 35> H      0.820537    3.346837    2.507701
| 36> H      1.210439    1.298427    1.230291
| 37> H      2.658301    0.866444   -1.984227
| 38> H      4.840784   -0.011328   -1.291697
| 39> H      2.887859   -2.846012    1.297040
| 40> H      0.708176   -1.982977    0.623152
| 41> **                         ****END OF INPUT****
 Total Charge           Charge          ....    0
 Multiplicity           Mult            ....    1
 Number of Electrons    NEL             ....  172
Dispersion correction           -0.085975390
FINAL SINGLE POINT ENERGY     -3609.330066850153
Dispersion correction             ... done (  0.1 sec)
Dispersion correction           -0.086543934
FINAL SINGLE POINT ENERGY     -3609.335073875435
Dispersion correction             ... done (  0.1 sec)
Dispersion correction           -0.086753029
FINAL SINGLE POINT ENERGY     -3609.335717671161
Dispersion correction             ... done (  0.1 sec)
FINAL SINGLE POINT ENERGY     -3609.335924972001
FINAL SINGLE POINT ENERGY     -3609.335958081424
Dispersion correction             ... done (  0.1 sec)
Dispersion correction           -0.086781949
FINAL SINGLE POINT ENERGY     -3609.335961223006
Dispersion correction             ... done (  0.1 sec)
Dispersion correction           -0.086772628
FINAL SINGLE POINT ENERGY     -3609.335962469679
Dispersion correction             ... done (  0.1 sec)
                    ***********************HURRAY********************

CARTESIAN COORDINATES (ANGSTROEM)
---------------------------------
  C     -3.206106   -2.789875    0.197624
  C     -2.533404   -3.017891   -1.015698
  C     -1.613794   -2.074061   -1.497279
  C     -1.338220   -0.899565   -0.761875
  C     -2.018748   -0.677175    0.453490
  C     -2.949527   -1.617010    0.926930
  P     -0.083359    0.263406   -1.470709
  C     -0.286112    1.727262   -0.354471
  C     -1.287949    2.661386   -0.700813
  C     -1.523793    3.786172    0.103789
  C     -0.746364    4.003722    1.254859
  C      0.262014    3.087887    1.598061
  C      0.490363    1.953411    0.801434
  C      1.480730   -0.469673   -0.803428
  C      2.699447    0.053431   -1.289937
  C      3.931746   -0.428513   -0.826812
  C      3.944963   -1.464676    0.122837
  C      2.748541   -2.013756    0.611241
  C      1.522640   -1.509978    0.147802
  Br     5.615806   -2.139715    0.751717
  H     -3.934516   -3.525537    0.571802
  H     -2.733479   -3.932198   -1.595506
  H     -1.096810   -2.248605   -2.454999
  H     -1.815065    0.235181    1.033848
  H     -3.475271   -1.431938    1.876581
  H     -1.889556    2.499153   -1.609979
  H     -2.312293    4.502510   -0.174207
  H     -0.924119    4.890773    1.882002
  H      0.875531    3.253869    2.497221
  H      1.275180    1.235008    1.081836
  H      2.685254    0.857461   -2.043600
  H      4.876111   -0.012101   -1.205087
  H      2.774928   -2.825199    1.352545
  H      0.585229   -1.933166    0.538782

 Multiplicity           Mult            ....    1
 Number of Electrons    NEL             ....  172
 Basis Dimension        Dim             ....  372

ORBITAL ENERGIES
----------------

  NO   OCC          E(Eh)            E(eV)
   0   2.0000    -481.077978    -13090.7973
   1   2.0000     -76.351515     -2077.6303
   2   2.0000     -61.806545     -1681.8416
   3   2.0000     -55.736533     -1516.6682
   4   2.0000     -55.733711     -1516.5914
   5   2.0000     -55.733640     -1516.5895
   6   2.0000      -9.974276      -271.4139
   7   2.0000      -9.936073      -270.3743
   8   2.0000      -9.935551      -270.3601
   9   2.0000      -9.935328      -270.3540
  10   2.0000      -9.934178      -270.3227
  11   2.0000      -9.933182      -270.2956
  12   2.0000      -9.930578      -270.2248
  13   2.0000      -9.930503      -270.2227
  14   2.0000      -9.928007      -270.1548
  15   2.0000      -9.927706      -270.1466
  16   2.0000      -9.927034      -270.1283
  17   2.0000      -9.926797      -270.1219
  18   2.0000      -9.926769      -270.1211
  19   2.0000      -9.926544      -270.1150
  20   2.0000      -9.926383      -270.1106
  21   2.0000      -9.926232      -270.1065
  22   2.0000      -9.926025      -270.1009
  23   2.0000      -9.925934      -270.0984
  24   2.0000      -8.411045      -228.8762
  25   2.0000      -6.319826      -171.9712
  26   2.0000      -6.293500      -171.2548
  27   2.0000      -6.279621      -170.8772
  28   2.0000      -6.279060      -170.8619
  29   2.0000      -4.541288      -123.5747
  30   2.0000      -4.541223      -123.5730
  31   2.0000      -4.537675      -123.4764
  32   2.0000      -2.495835       -67.9151
  33   2.0000      -2.492398       -67.8216
  34   2.0000      -2.492042       -67.8119
  35   2.0000      -2.481603       -67.5279
  36   2.0000      -2.481597       -67.5277
  37   2.0000      -0.796406       -21.6713
  38   2.0000      -0.779724       -21.2174
  39   2.0000      -0.774314       -21.0702
  40   2.0000      -0.739183       -20.1142
  41   2.0000      -0.696485       -18.9523
  42   2.0000      -0.684510       -18.6265
  43   2.0000      -0.675118       -18.3709
  44   2.0000      -0.674374       -18.3506
  45   2.0000      -0.670112       -18.2347
  46   2.0000      -0.658912       -17.9299
  47   2.0000      -0.586833       -15.9685
  48   2.0000      -0.559305       -15.2195
  49   2.0000      -0.547957       -14.9107
  50   2.0000      -0.547049       -14.8860
  51   2.0000      -0.537546       -14.6274
  52   2.0000      -0.535857       -14.5814
  53   2.0000      -0.507149       -13.8002
  54   2.0000      -0.469405       -12.7732
  55   2.0000      -0.467356       -12.7174
  56   2.0000      -0.442349       -12.0369
  57   2.0000      -0.426931       -11.6174
  58   2.0000      -0.413114       -11.2414
  59   2.0000      -0.412081       -11.2133
  60   2.0000      -0.408137       -11.1060
  61   2.0000      -0.404079       -10.9956
  62   2.0000      -0.397875       -10.8267
  63   2.0000      -0.389426       -10.5968
  64   2.0000      -0.380687       -10.3590
  65   2.0000      -0.380136       -10.3440
  66   2.0000      -0.369897       -10.0654
  67   2.0000      -0.369355       -10.0507
  68   2.0000      -0.351490        -9.5645
  69   2.0000      -0.338399        -9.2083
  70   2.0000      -0.336020        -9.1436
  71   2.0000      -0.331373        -9.0171
  72   2.0000      -0.320314        -8.7162
  73   2.0000      -0.310501        -8.4492
  74   2.0000      -0.309174        -8.4130
  75   2.0000      -0.296340        -8.0638
  76   2.0000      -0.294003        -8.0002
  77   2.0000      -0.283851        -7.7240
  78   2.0000      -0.256064        -6.9678
  79   2.0000      -0.251386        -6.8405
  80   2.0000      -0.247134        -6.7249
  81   2.0000      -0.241381        -6.5683
  82   2.0000      -0.237286        -6.4569
  83   2.0000      -0.235990        -6.4216
  84   2.0000      -0.227038        -6.1780
  85   2.0000      -0.198069        -5.3897
  86   0.0000      -0.066627        -1.8130
  87   0.0000      -0.063214        -1.7201
  88   0.0000      -0.062708        -1.7064
  89   0.0000      -0.049569        -1.3488
  90   0.0000      -0.047928        -1.3042

MULLIKEN ATOMIC CHARGES
-----------------------
   0 C :    0.003848
   1 C :   -0.000493
   2 C :    0.014611
   3 C :   -0.166144
   4 C :    0.006082
   5 C :    0.003856
   6 P :    0.306619
   7 C :   -0.163114
   8 C :    0.015939
   9 C :   -0.000297
  10 C :    0.003630
  11 C :    0.003931
  12 C :    0.005509
  13 C :   -0.150088
  14 C :    0.006546
  15 C :    0.021221
  16 C :   -0.037754
  17 C :    0.027254
  18 C :   -0.001863
  19 Br:   -0.038031
  20 H :    0.006738
  21 H :    0.007130
  22 H :    0.005738
  23 H :    0.018459
  24 H :    0.004572
  25 H :    0.005655
  26 H :    0.006859
  27 H :    0.006667
  28 H :    0.005034
  29 H :    0.016535
  30 H :    0.012334
  31 H :    0.009987
  32 H :    0.007822
  33 H :    0.025208
Sum of atomic charges:   -0.0000000

LOEWDIN ATOMIC CHARGES
----------------------
   0 C :   -0.028384
   1 C :   -0.030089
   2 C :   -0.034311
   3 C :   -0.173806
   4 C :   -0.035276
   5 C :   -0.029768
   6 P :    0.502168
   7 C :   -0.173279
   8 C :   -0.033736
   9 C :   -0.029906
  10 C :   -0.028391
  11 C :   -0.029563
  12 C :   -0.036082
  13 C :   -0.174716
  14 C :   -0.026207
  15 C :   -0.041945
  16 C :   -0.116702
  17 C :   -0.041808
  18 C :   -0.027752
  19 Br:    0.096718
  20 H :    0.033733
  21 H :    0.034539
  22 H :    0.031652
  23 H :    0.035968
  24 H :    0.034040
  25 H :    0.031635
  26 H :    0.034447
  27 H :    0.033711
  28 H :    0.034234
  29 H :    0.035019
  30 H :    0.035704
  31 H :    0.039421
  32 H :    0.038990
  33 H :    0.039744

  Mayer bond orders larger than 0.100000
B(  0-C ,  1-C ) :   1.3747 B(  0-C ,  5-C ) :   1.3792 B(  0-C , 20-H ) :   0.9758
B(  1-C ,  2-C ) :   1.4040 B(  1-C , 21-H ) :   0.9759 B(  2-C ,  3-C ) :   1.3608
B(  2-C , 22-H ) :   0.9718 B(  3-C ,  4-C ) :   1.3822 B(  3-C ,  6-P ) :   0.9359
B(  4-C ,  5-C ) :   1.3818 B(  4-C , 23-H ) :   0.9670 B(  5-C , 24-H ) :   0.9749
B(  6-P ,  7-C ) :   0.9367 B(  6-P , 13-C ) :   0.9329 B(  7-C ,  8-C ) :   1.3616
B(  7-C , 12-C ) :   1.3818 B(  8-C ,  9-C ) :   1.4044 B(  8-C , 25-H ) :   0.9715
B(  9-C , 10-C ) :   1.3745 B(  9-C , 26-H ) :   0.9758 B( 10-C , 11-C ) :   1.3795
B( 10-C , 27-H ) :   0.9758 B( 11-C , 12-C ) :   1.3826 B( 11-C , 28-H ) :   0.9748
B( 12-C , 29-H ) :   0.9669 B( 13-C , 14-C ) :   1.3517 B( 13-C , 18-C ) :   1.3755
B( 14-C , 15-C ) :   1.4058 B( 14-C , 30-H ) :   0.9690 B( 15-C , 16-C ) :   1.3757
B( 15-C , 31-H ) :   0.9750 B( 16-C , 17-C ) :   1.3795 B( 16-C , 19-Br) :   0.9890
B( 17-C , 18-C ) :   1.3816 B( 17-C , 32-H ) :   0.9745 B( 18-C , 33-H ) :   0.9639

Dispersion correction           -0.086775600
FINAL SINGLE POINT ENERGY     -3609.335962726059

DIPOLE MOMENT
-------------

Method             : SCF
Type of density    : Electron Density
Multiplicity       :   1
Irrep              :   0
Energy             : -3609.2491871262186578 Eh
Relativity type    :
Basis              : AO
                                X                 Y                 Z
Electronic contribution:     60.037759698     -22.310726141       4.413489420
Nuclear contribution   :    -60.637768046      22.464829261      -4.056233478
                        -----------------------------------------
Total Dipole Moment    :     -0.600008348       0.154103120       0.357255943
                        -----------------------------------------
Magnitude (a.u.)       :      0.715115094
Magnitude (Debye)      :      1.817678116

Rotational constants in cm-1:             0.011494             0.004554             0.003643
Rotational constants in MHz :           344.573277           136.512008           109.208584

                             ****ORCA TERMINATED NORMALLY****
TOTAL RUN TIME: 0 days 0 hours 2 minutes 7 seconds 256 msec
