                         Program Version 6.0.0  -   RELEASE   -
|  1> ! RIJCOSX M062X def2-TZVP D3ZERO NormalSCF
|  2> %pal
|  3> nprocs 6
|  4> end
|  5>
|  6> * xyz 0 1
|  7>   C          -0.70842688938131     -2.42297852092668     -1.67843530250784
|  8>   C          -1.15840504118323     -3.68918547441074     -1.28108892799836
|  9>   C          -1.80905253968223     -3.82661574206556     -0.04197582985170
| 10>   C          -2.00665201913897     -2.71595665776148      0.79544461022013
| 11>   C          -1.53810946837022     -1.45701407344164      0.38997824100718
| 12>   C          -0.88032774486131     -1.29377596180938     -0.84712863773294
| 13>   P          -0.21788530552671      0.32118430034777     -1.46332818839111
| 14>   C           1.53311823457941      0.22815590441206     -0.86993233906087
| 15>   C           2.42856316035354      1.21354864250352     -1.34218769043351
| 16>   C           3.76667232864734      1.23439248758647     -0.92674517992766
| 17>   C           4.22377575461056      0.24256376731455     -0.04080169417550
| 18>   C           3.35697656067690     -0.75786994777197      0.43008767526868
| 19>   C           2.01621712405851     -0.75727705014897      0.01603791597424
| 20>   Cl          5.89466812706242      0.25170868311551      0.47608990125348
| 21>   C          -0.94229719836060      1.48930299810112     -0.22325155617552
| 22>   C          -2.24839982709957      1.96748751218318     -0.47108583262620
| 23>   C          -2.88175921817701      2.83965140485838      0.42425255791511
| 24>   C          -2.19177516815679      3.25786568445003      1.57609844620779
| 25>   C          -0.88617659019952      2.80923786236754      1.83668642009269
| 26>   C          -0.27055209695214      1.92456963749357      0.93805837756869
| 27>   Cl         -2.96764729350016      4.35622463051030      2.69456042402454
| 28>   Cl         -2.38523959846411     -5.40016830905587      0.45926753719921
| 29>   H          -0.20940269284697     -2.31051033904154     -2.65457448477996
| 30>   H          -1.01881559626215     -4.56816571226314     -1.92604673968336
| 31>   H          -2.51998480247742     -2.84294294216999      1.75914524680956
| 32>   H          -1.68469052591915     -0.58977579162611      1.05095504801815
| 33>   H           2.07097727044263      1.98256922447626     -2.04591117660297
| 34>   H           4.46074673336997      2.00526439352549     -1.29019248367360
| 35>   H           3.73331478103522     -1.52642572206081      1.12008005790073
| 36>   H           1.33667897296399     -1.53577196512178      0.39392838841392
| 37>   H          -2.78206379982646      1.64838753994253     -1.38096367159319
| 38>   H          -3.90016051241172      3.20629449979955      0.23320964507383
| 39>   H          -0.36207587317434      3.14956919490195      2.74104300753839
| 40>   H           0.74819075417161      1.56645584178589      1.14872823472795
| 41> **                         ****END OF INPUT****

CARTESIAN COORDINATES (ANGSTROEM)
---------------------------------
  C     -0.708427   -2.422979   -1.678435
  C     -1.158405   -3.689185   -1.281089
  C     -1.809053   -3.826616   -0.041976
  C     -2.006652   -2.715957    0.795445
  C     -1.538109   -1.457014    0.389978
  C     -0.880328   -1.293776   -0.847129
  P     -0.217885    0.321184   -1.463328
  C      1.533118    0.228156   -0.869932
  C      2.428563    1.213549   -1.342188
  C      3.766672    1.234392   -0.926745
  C      4.223776    0.242564   -0.040802
  C      3.356977   -0.757870    0.430088
  C      2.016217   -0.757277    0.016038
  Cl     5.894668    0.251709    0.476090
  C     -0.942297    1.489303   -0.223252
  C     -2.248400    1.967488   -0.471086
  C     -2.881759    2.839651    0.424253
  C     -2.191775    3.257866    1.576098
  C     -0.886177    2.809238    1.836686
  C     -0.270552    1.924570    0.938058
  Cl    -2.967647    4.356225    2.694560
  Cl    -2.385240   -5.400168    0.459268
  H     -0.209403   -2.310510   -2.654574
  H     -1.018816   -4.568166   -1.926047
  H     -2.519985   -2.842943    1.759145
  H     -1.684691   -0.589776    1.050955
  H      2.070977    1.982569   -2.045911
  H      4.460747    2.005264   -1.290192
  H      3.733315   -1.526426    1.120080
  H      1.336679   -1.535772    0.393928
  H     -2.782064    1.648388   -1.380964
  H     -3.900161    3.206294    0.233210
  H     -0.362076    3.149569    2.741043
  H      0.748191    1.566456    1.148728

 Total Charge           Charge          ....    0
 Multiplicity           Mult            ....    1
 Number of Electrons    NEL             ....  186
 Basis Dimension        Dim             ....  778

ORBITAL ENERGIES
----------------

  NO   OCC          E(Eh)            E(eV)
   0   2.0000    -102.654555     -2793.3725
   1   2.0000    -102.654516     -2793.3714
   2   2.0000    -102.654463     -2793.3700
   3   2.0000     -78.048835     -2123.8168
   4   2.0000     -10.621894      -289.0364
   5   2.0000     -10.621881      -289.0361
   6   2.0000     -10.621787      -289.0335
   7   2.0000     -10.572668      -287.6969
   8   2.0000     -10.572647      -287.6963
   9   2.0000     -10.572618      -287.6956
  10   2.0000     -10.571822      -287.6739
  11   2.0000     -10.571821      -287.6739
  12   2.0000     -10.571802      -287.6734
  13   2.0000     -10.571522      -287.6657
  14   2.0000     -10.571511      -287.6654
  15   2.0000     -10.571489      -287.6648
  16   2.0000     -10.571305      -287.6598
  17   2.0000     -10.571295      -287.6596
  18   2.0000     -10.571232      -287.6578
  19   2.0000     -10.570044      -287.6255
  20   2.0000     -10.570032      -287.6252
  21   2.0000     -10.569958      -287.6232
  22   2.0000      -9.816551      -267.1219
  23   2.0000      -9.816519      -267.1210
  24   2.0000      -9.816463      -267.1195
  25   2.0000      -7.538482      -205.1325
  26   2.0000      -7.538445      -205.1315
  27   2.0000      -7.538389      -205.1300
  28   2.0000      -7.533604      -204.9998
  29   2.0000      -7.533578      -204.9991
  30   2.0000      -7.533520      -204.9975
  31   2.0000      -7.533454      -204.9957
  32   2.0000      -7.533422      -204.9948
  33   2.0000      -7.533370      -204.9934
  34   2.0000      -6.864747      -186.7993
  35   2.0000      -4.979377      -135.4957
  36   2.0000      -4.978944      -135.4839
  37   2.0000      -4.978937      -135.4838
  38   2.0000      -1.003123       -27.2964
  39   2.0000      -1.000892       -27.2357
  40   2.0000      -1.000836       -27.2341
  41   2.0000      -0.952224       -25.9113
  42   2.0000      -0.941418       -25.6173
  43   2.0000      -0.941361       -25.6157
  44   2.0000      -0.864176       -23.5154
  45   2.0000      -0.863395       -23.4942
  46   2.0000      -0.863365       -23.4934
  47   2.0000      -0.861885       -23.4531
  48   2.0000      -0.830732       -22.6054
  49   2.0000      -0.830670       -22.6037
  50   2.0000      -0.734680       -19.9917
  51   2.0000      -0.712857       -19.3978
  52   2.0000      -0.712619       -19.3914
  53   2.0000      -0.712561       -19.3898
  54   2.0000      -0.684677       -18.6310
  55   2.0000      -0.684645       -18.6301
  56   2.0000      -0.651885       -17.7387
  57   2.0000      -0.595890       -16.2150
  58   2.0000      -0.595844       -16.2138
  59   2.0000      -0.567579       -15.4446
  60   2.0000      -0.550408       -14.9774
  61   2.0000      -0.550242       -14.9728
  62   2.0000      -0.550190       -14.9714
  63   2.0000      -0.540816       -14.7163
  64   2.0000      -0.540784       -14.7155
  65   2.0000      -0.529543       -14.4096
  66   2.0000      -0.508939       -13.8489
  67   2.0000      -0.508093       -13.8259
  68   2.0000      -0.508049       -13.8247
  69   2.0000      -0.491429       -13.3725
  70   2.0000      -0.491357       -13.3705
  71   2.0000      -0.477091       -12.9823
  72   2.0000      -0.474087       -12.9006
  73   2.0000      -0.474027       -12.8989
  74   2.0000      -0.456776       -12.4295
  75   2.0000      -0.432798       -11.7770
  76   2.0000      -0.432756       -11.7759
  77   2.0000      -0.431570       -11.7436
  78   2.0000      -0.414376       -11.2758
  79   2.0000      -0.414321       -11.2742
  80   2.0000      -0.411651       -11.2016
  81   2.0000      -0.395058       -10.7501
  82   2.0000      -0.395019       -10.7490
  83   2.0000      -0.384682       -10.4677
  84   2.0000      -0.384648       -10.4668
  85   2.0000      -0.384564       -10.4645
  86   2.0000      -0.338722        -9.2171
  87   2.0000      -0.335767        -9.1367
  88   2.0000      -0.328770        -8.9463
  89   2.0000      -0.328683        -8.9439
  90   2.0000      -0.312575        -8.5056
  91   2.0000      -0.312407        -8.5010
  92   2.0000      -0.278502        -7.5784
  93   0.0000      -0.020106        -0.5471
  94   0.0000      -0.019588        -0.5330
  95   0.0000      -0.019466        -0.5297
  96   0.0000      -0.002043        -0.0556
  97   0.0000       0.003139         0.0854

MULLIKEN ATOMIC CHARGES
-----------------------
   0 C :   -0.134412
   1 C :   -0.172028
   2 C :    0.091490
   3 C :   -0.189023
   4 C :   -0.128560
   5 C :   -0.111246
   6 P :    0.131690
   7 C :   -0.108990
   8 C :   -0.135810
   9 C :   -0.173104
  10 C :    0.092755
  11 C :   -0.189175
  12 C :   -0.130046
  13 Cl:   -0.079347
  14 C :   -0.109241
  15 C :   -0.136562
  16 C :   -0.173551
  17 C :    0.093533
  18 C :   -0.191542
  19 C :   -0.125935
  20 Cl:   -0.079389
  21 Cl:   -0.079711
  22 H :    0.162036
  23 H :    0.164929
  24 H :    0.165425
  25 H :    0.187629
  26 H :    0.162230
  27 H :    0.164771
  28 H :    0.165361
  29 H :    0.186959
  30 H :    0.161979
  31 H :    0.164765
  32 H :    0.165143
  33 H :    0.186976
Sum of atomic charges:   -0.0000000

LOEWDIN ATOMIC CHARGES
----------------------
   0 C :   -0.134119
   1 C :   -0.141931
   2 C :   -0.414833
   3 C :   -0.141345
   4 C :   -0.130648
   5 C :   -0.278707
   6 P :    0.703464
   7 C :   -0.278687
   8 C :   -0.134355
   9 C :   -0.141986
  10 C :   -0.414895
  11 C :   -0.141318
  12 C :   -0.130523
  13 Cl:    0.383509
  14 C :   -0.278574
  15 C :   -0.134251
  16 C :   -0.141981
  17 C :   -0.414905
  18 C :   -0.141334
  19 C :   -0.130655
  20 Cl:    0.383399
  21 Cl:    0.383478
  22 H :    0.154567
  23 H :    0.154176
  24 H :    0.154275
  25 H :    0.160706
  26 H :    0.154567
  27 H :    0.154194
  28 H :    0.154279
  29 H :    0.160680
  30 H :    0.154574
  31 H :    0.154204
  32 H :    0.154245
  33 H :    0.160731

  Mayer bond orders larger than 0.100000
B(  0-C ,  1-C ) :   1.4549 B(  0-C ,  5-C ) :   1.3980 B(  0-C , 22-H ) :   0.9326
B(  1-C ,  2-C ) :   1.3866 B(  1-C , 23-H ) :   0.9317 B(  2-C ,  3-C ) :   1.3987
B(  2-C , 21-Cl) :   1.0364 B(  3-C ,  4-C ) :   1.4624 B(  3-C , 24-H ) :   0.9260
B(  4-C ,  5-C ) :   1.3306 B(  4-C , 25-H ) :   0.9249 B(  5-C ,  6-P ) :   0.9316
B(  6-P ,  7-C ) :   0.9315 B(  6-P , 14-C ) :   0.9313 B(  7-C ,  8-C ) :   1.3970
B(  7-C , 12-C ) :   1.3336 B(  8-C ,  9-C ) :   1.4533 B(  8-C , 26-H ) :   0.9331
B(  9-C , 10-C ) :   1.3860 B(  9-C , 27-H ) :   0.9323 B( 10-C , 11-C ) :   1.3976
B( 10-C , 13-Cl) :   1.0383 B( 11-C , 12-C ) :   1.4622 B( 11-C , 28-H ) :   0.9261
B( 12-C , 29-H ) :   0.9253 B( 14-C , 15-C ) :   1.3963 B( 14-C , 19-C ) :   1.3323
B( 15-C , 16-C ) :   1.4546 B( 15-C , 30-H ) :   0.9329 B( 16-C , 17-C ) :   1.3842
B( 16-C , 31-H ) :   0.9324 B( 17-C , 18-C ) :   1.3997 B( 17-C , 20-Cl) :   1.0378
B( 18-C , 19-C ) :   1.4616 B( 18-C , 32-H ) :   0.9261 B( 19-C , 33-H ) :   0.9252

Dispersion correction           -0.002355355
FINAL SINGLE POINT ENERGY     -2415.053920135283

DIPOLE MOMENT
-------------

Method             : SCF
Type of density    : Electron Density
Multiplicity       :   1
Irrep              :   0
Energy             : -2415.0515647798811187 Eh
Relativity type    :
Basis              : AO
                                X                 Y                 Z
Electronic contribution:      0.788239214      -1.150217371       5.266701973
Nuclear contribution   :     -0.824731804       1.201509707      -5.518903439
                        -----------------------------------------
Total Dipole Moment    :     -0.036492590       0.051292336      -0.252201466
                        -----------------------------------------
Magnitude (a.u.)       :      0.259938824
Magnitude (Debye)      :      0.660711983

Rotational constants in cm-1:             0.005077             0.005065             0.002877
Rotational constants in MHz :           152.193146           151.857001            86.241645

                             ****ORCA TERMINATED NORMALLY****
TOTAL RUN TIME: 0 days 0 hours 2 minutes 22 seconds 899 msec
