                         Program Version 6.0.0  -   RELEASE   -
|  1> ! RIJONX B3LYP def2-SVP D3BJ TIGHTSCF Opt
|  2> %pal
|  3> nprocs 6
|  4> end
|  5>
|  6> * xyz 0 1
|  7> C     -1.896337   -2.046541    0.116894
|  8> C     -1.398604   -0.740020   -0.479288
|  9> P     -0.158618    0.103895    0.603008
| 10> C      1.328222   -0.945779    0.273437
| 11> C      2.561074   -0.456096    1.015362
| 12> C      0.241938    1.573428   -0.446349
| 13> C     -0.853679    2.626396   -0.413962
| 14> H     -1.090106   -2.779478    0.222400
| 15> H     -2.660416   -2.486833   -0.532338
| 16> H     -2.344898   -1.892386    1.104428
| 17> H     -2.257379   -0.074590   -0.615819
| 18> H     -0.972063   -0.925916   -1.470817
| 19> H      1.115181   -1.969655    0.597820
| 20> H      1.535201   -0.983033   -0.801456
| 21> H      3.402634   -1.131537    0.828996
| 22> H      2.862093    0.544601    0.689282
| 23> H      2.392079   -0.422897    2.097273
| 24> H      1.167248    2.027837   -0.077231
| 25> H      0.424031    1.262348   -1.480609
| 26> H     -1.793718    2.249111   -0.829076
| 27> H     -0.554787    3.495603   -1.009207
| 28> H     -1.049097    2.971544    0.607252
| 29> **                         ****END OF INPUT****
 Total Charge           Charge          ....    0
 Multiplicity           Mult            ....    1
 Number of Electrons    NEL             ....   66
Dispersion correction           -0.035030616
FINAL SINGLE POINT ENERGY      -578.561089204371
Dispersion correction             ... done (  0.1 sec)
Dispersion correction           -0.034767568
FINAL SINGLE POINT ENERGY      -578.562783267323
Dispersion correction             ... done (  0.1 sec)
Dispersion correction           -0.034663893
FINAL SINGLE POINT ENERGY      -578.563077229981
Dispersion correction             ... done (  0.1 sec)
FINAL SINGLE POINT ENERGY      -578.563175547527
Dispersion correction             ... done (  0.1 sec)
Dispersion correction           -0.034618267
FINAL SINGLE POINT ENERGY      -578.563192505168
Dispersion correction             ... done (  0.1 sec)
Dispersion correction           -0.034622432
FINAL SINGLE POINT ENERGY      -578.563195708059
Dispersion correction             ... done (  0.1 sec)
                    ***********************HURRAY********************

CARTESIAN COORDINATES (ANGSTROEM)
---------------------------------
  C     -1.923629   -2.072185    0.116601
  C     -1.395978   -0.764930   -0.477602
  P     -0.164523    0.109843    0.629294
  C      1.350868   -0.930133    0.270555
  C      2.596381   -0.469644    1.029925
  C      0.220390    1.584192   -0.459086
  C     -0.862875    2.663755   -0.423297
  H     -1.118765   -2.812904    0.252820
  H     -2.681979   -2.531114   -0.538698
  H     -2.386486   -1.903256    1.102363
  H     -2.232035   -0.061998   -0.632153
  H     -0.941969   -0.938922   -1.470326
  H      1.097377   -1.963263    0.562736
  H      1.537363   -0.947020   -0.818806
  H      3.453486   -1.133670    0.830844
  H      2.899074    0.549677    0.739182
  H      2.419741   -0.463306    2.117694
  H      1.174574    2.001079   -0.094713
  H      0.400539    1.240994   -1.494251
  H     -1.824336    2.290215   -0.812000
  H     -0.579005    3.534686   -1.036531
  H     -1.038213    3.017907    0.605450

 Multiplicity           Mult            ....    1
 Number of Electrons    NEL             ....   66
 Basis Dimension        Dim             ....  177

ORBITAL ENERGIES
----------------

  NO   OCC          E(Eh)            E(eV)
   0   2.0000     -77.028455     -2096.0508
   1   2.0000     -10.180832      -277.0345
   2   2.0000     -10.180829      -277.0344
   3   2.0000     -10.180766      -277.0327
   4   2.0000     -10.179301      -276.9929
   5   2.0000     -10.179298      -276.9928
   6   2.0000     -10.179269      -276.9920
   7   2.0000      -6.526447      -177.5937
   8   2.0000      -4.691773      -127.6696
   9   2.0000      -4.691769      -127.6695
  10   2.0000      -4.688750      -127.5874
  11   2.0000      -0.776520       -21.1302
  12   2.0000      -0.740634       -20.1537
  13   2.0000      -0.740605       -20.1529
  14   2.0000      -0.647111       -17.6088
  15   2.0000      -0.599000       -16.2996
  16   2.0000      -0.598937       -16.2979
  17   2.0000      -0.514505       -14.0004
  18   2.0000      -0.443334       -12.0637
  19   2.0000      -0.443242       -12.0612
  20   2.0000      -0.442223       -12.0335
  21   2.0000      -0.424603       -11.5540
  22   2.0000      -0.424574       -11.5533
  23   2.0000      -0.388429       -10.5697
  24   2.0000      -0.370390       -10.0788
  25   2.0000      -0.367365        -9.9965
  26   2.0000      -0.367316        -9.9952
  27   2.0000      -0.356383        -9.6977
  28   2.0000      -0.341083        -9.2814
  29   2.0000      -0.341071        -9.2810
  30   2.0000      -0.295995        -8.0544
  31   2.0000      -0.295982        -8.0541
  32   2.0000      -0.218124        -5.9355
  33   0.0000       0.051360         1.3976
  34   0.0000       0.051403         1.3987
  35   0.0000       0.057047         1.5523
  36   0.0000       0.087736         2.3874
  37   0.0000       0.087829         2.3899

MULLIKEN ATOMIC CHARGES
-----------------------
   0 C :    0.024917
   1 C :   -0.165996
   2 P :    0.143822
   3 C :   -0.165860
   4 C :    0.025251
   5 C :   -0.165895
   6 C :    0.025053
   7 H :    0.011747
   8 H :    0.013789
   9 H :    0.019541
  10 H :    0.030164
  11 H :    0.017790
  12 H :    0.029996
  13 H :    0.017767
  14 H :    0.013753
  15 H :    0.011641
  16 H :    0.019486
  17 H :    0.030106
  18 H :    0.017848
  19 H :    0.011749
  20 H :    0.013783
  21 H :    0.019546
Sum of atomic charges:   -0.0000000

LOEWDIN ATOMIC CHARGES
----------------------
   0 C :   -0.065731
   1 C :   -0.181653
   2 P :    0.444407
   3 C :   -0.181629
   4 C :   -0.065732
   5 C :   -0.181634
   6 C :   -0.065698
   7 H :    0.018612
   8 H :    0.023794
   9 H :    0.023426
  10 H :    0.020351
  11 H :    0.013027
  12 H :    0.020361
  13 H :    0.013018
  14 H :    0.023772
  15 H :    0.018624
  16 H :    0.023441
  17 H :    0.020358
  18 H :    0.013003
  19 H :    0.018633
  20 H :    0.023797
  21 H :    0.023454

  Mayer bond orders larger than 0.100000
B(  0-C ,  1-C ) :   1.0849 B(  0-C ,  7-H ) :   0.9706 B(  0-C ,  8-H ) :   0.9645
B(  0-C ,  9-H ) :   0.9687 B(  1-C ,  2-P ) :   0.9673 B(  1-C , 10-H ) :   0.9453
B(  1-C , 11-H ) :   0.9326 B(  2-P ,  3-C ) :   0.9674 B(  2-P ,  5-C ) :   0.9674
B(  3-C ,  4-C ) :   1.0848 B(  3-C , 12-H ) :   0.9452 B(  3-C , 13-H ) :   0.9325
B(  4-C , 14-H ) :   0.9645 B(  4-C , 15-H ) :   0.9706 B(  4-C , 16-H ) :   0.9688
B(  5-C ,  6-C ) :   1.0848 B(  5-C , 17-H ) :   0.9453 B(  5-C , 18-H ) :   0.9326
B(  6-C , 19-H ) :   0.9706 B(  6-C , 20-H ) :   0.9645 B(  6-C , 21-H ) :   0.9688

Dispersion correction           -0.034623233
FINAL SINGLE POINT ENERGY      -578.563196375828

DIPOLE MOMENT
-------------

Method             : SCF
Type of density    : Electron Density
Multiplicity       :   1
Irrep              :   0
Energy             :  -578.5285731428880354 Eh
Relativity type    :
Basis              : AO
                                X                 Y                 Z
Electronic contribution:     -0.773389684       0.519850101       2.958502640
Nuclear contribution   :      0.883377764      -0.592261759      -3.379588435
                        -----------------------------------------
Total Dipole Moment    :      0.109988080      -0.072411658      -0.421085795
                        -----------------------------------------
Magnitude (a.u.)       :      0.441196184
Magnitude (Debye)      :      1.121431578

Rotational constants in cm-1:             0.060973             0.060840             0.033490
Rotational constants in MHz :          1827.919120          1823.936724          1004.017657

                             ****ORCA TERMINATED NORMALLY****
TOTAL RUN TIME: 0 days 0 hours 0 minutes 54 seconds 221 msec
