                         Program Version 6.0.0  -   RELEASE   -
|  1> ! RIJCOSX M062X def2-TZVP D3ZERO NormalSCF
|  2> %pal
|  3> nprocs 6
|  4> end
|  5>
|  6> * xyz 0 1
|  7>   C          -3.19691590914514     -3.31060748688529     -0.51718380534893
|  8>   C          -2.20061212889250     -2.76470213513199     -1.34463574348218
|  9>   C          -1.34320788786935     -1.76856256268140     -0.84970628913287
| 10>   C          -1.49081382169709     -1.31148139928764      0.47546883841039
| 11>   C          -2.47948900073423     -1.87162681491754      1.30975578681374
| 12>   C          -3.33227746952596     -2.86759486879739      0.81023703794957
| 13>   P          -0.45612706547032      0.00417675236309      1.21730060411862
| 14>   O          -0.34447767264266     -0.09591209704276      2.72870294339337
| 15>   C          -1.17389235338820      1.58827872366331      0.64494038570352
| 16>   C          -1.00237273469544      2.69797459120540      1.49736260389642
| 17>   C          -1.49955177727299      3.95367977597449      1.11696953939997
| 18>   C          -2.17208517789695      4.10366512767761     -0.10858507715788
| 19>   C          -2.35811863468946      2.99444170459983     -0.95135030547158
| 20>   C          -1.86456184375290      1.73462722049918     -0.57497945174530
| 21>   C           1.16889671914274     -0.12546923396711      0.37272764198299
| 22>   C           1.43734288942805      0.43704849337278     -0.89236922960751
| 23>   C           2.69885268486849      0.26983465905082     -1.47601067374347
| 24>   C           3.70338768302776     -0.44961638359076     -0.79627225096871
| 25>   C           3.44025495069929     -0.99409188639762      0.47876137914919
| 26>   C           2.17731573888103     -0.82930039382579      1.06173626015858
| 27>   C           5.02974466176390     -0.59663617916304     -1.46850867508946
| 28>   O           5.30523153563925     -0.14731706396633     -2.56915451691471
| 29>   O           5.92441481729840     -1.29746231701136     -0.72053322756728
| 30>   H          -3.86545547322513     -4.09371741956377     -0.90664960170754
| 31>   H          -2.08394966352246     -3.12318530358602     -2.37886871754412
| 32>   H          -0.54720617922492     -1.35989831505958     -1.49126774984928
| 33>   H          -2.55460881059517     -1.52327832435939      2.35157081967245
| 34>   H          -4.10368383568374     -3.30588006556636      1.46195216494570
| 35>   H          -0.48940507591632      2.55363814003669      2.46085389368119
| 36>   H          -1.36672141049089      4.82024647019672      1.78276388928888
| 37>   H          -2.56260199708024      5.08947515258163     -0.40451974813890
| 38>   H          -2.89910973059756      3.10873926629947     -1.90320852043368
| 39>   H          -2.03313033011409      0.86062101935055     -1.22289494374807
| 40>   H           0.66389310863598      1.02189163360328     -1.41339960141866
| 41>   H           2.93754942093699      0.69568586671803     -2.46164614409059
| 42>   H           4.23326832516238     -1.54121604805742      1.00712185652966
| 43>   H           1.95506090376668     -1.22888467295048      2.06323451511955
| 44>   H           6.74516354487276     -1.32758662538384     -1.25858488705307
| 45> **                         ****END OF INPUT****

CARTESIAN COORDINATES (ANGSTROEM)
---------------------------------
  C     -3.196916   -3.310607   -0.517184
  C     -2.200612   -2.764702   -1.344636
  C     -1.343208   -1.768563   -0.849706
  C     -1.490814   -1.311481    0.475469
  C     -2.479489   -1.871627    1.309756
  C     -3.332277   -2.867595    0.810237
  P     -0.456127    0.004177    1.217301
  O     -0.344478   -0.095912    2.728703
  C     -1.173892    1.588279    0.644940
  C     -1.002373    2.697975    1.497363
  C     -1.499552    3.953680    1.116970
  C     -2.172085    4.103665   -0.108585
  C     -2.358119    2.994442   -0.951350
  C     -1.864562    1.734627   -0.574979
  C      1.168897   -0.125469    0.372728
  C      1.437343    0.437048   -0.892369
  C      2.698853    0.269835   -1.476011
  C      3.703388   -0.449616   -0.796272
  C      3.440255   -0.994092    0.478761
  C      2.177316   -0.829300    1.061736
  C      5.029745   -0.596636   -1.468509
  O      5.305232   -0.147317   -2.569155
  O      5.924415   -1.297462   -0.720533
  H     -3.865455   -4.093717   -0.906650
  H     -2.083950   -3.123185   -2.378869
  H     -0.547206   -1.359898   -1.491268
  H     -2.554609   -1.523278    2.351571
  H     -4.103684   -3.305880    1.461952
  H     -0.489405    2.553638    2.460854
  H     -1.366721    4.820246    1.782764
  H     -2.562602    5.089475   -0.404520
  H     -2.899110    3.108739   -1.903209
  H     -2.033130    0.860621   -1.222895
  H      0.663893    1.021892   -1.413400
  H      2.937549    0.695686   -2.461646
  H      4.233268   -1.541216    1.007122
  H      1.955061   -1.228885    2.063235
  H      6.745164   -1.327587   -1.258585

 Total Charge           Charge          ....    0
 Multiplicity           Mult            ....    1
 Number of Electrons    NEL             ....  168
 Basis Dimension        Dim             ....  809

ORBITAL ENERGIES
----------------

  NO   OCC          E(Eh)            E(eV)
   0   2.0000     -78.104380     -2125.3282
   1   2.0000     -19.685335      -535.6652
   2   2.0000     -19.629487      -534.1455
   3   2.0000     -19.573718      -532.6280
   4   2.0000     -10.693167      -290.9759
   5   2.0000     -10.580249      -287.9032
   6   2.0000     -10.573595      -287.7221
   7   2.0000     -10.572707      -287.6980
   8   2.0000     -10.571684      -287.6701
   9   2.0000     -10.570945      -287.6500
  10   2.0000     -10.568710      -287.5892
  11   2.0000     -10.568119      -287.5731
  12   2.0000     -10.567982      -287.5694
  13   2.0000     -10.565614      -287.5050
  14   2.0000     -10.565251      -287.4951
  15   2.0000     -10.564757      -287.4817
  16   2.0000     -10.564500      -287.4747
  17   2.0000     -10.563350      -287.4434
  18   2.0000     -10.563060      -287.4355
  19   2.0000     -10.563015      -287.4342
  20   2.0000     -10.562882      -287.4306
  21   2.0000     -10.561171      -287.3841
  22   2.0000     -10.560912      -287.3770
  23   2.0000      -6.910668      -188.0488
  24   2.0000      -5.027827      -136.8141
  25   2.0000      -5.027751      -136.8121
  26   2.0000      -5.026070      -136.7663
  27   2.0000      -1.240627       -33.7592
  28   2.0000      -1.145292       -31.1650
  29   2.0000      -1.069561       -29.1042
  30   2.0000      -0.980294       -26.6751
  31   2.0000      -0.970294       -26.4030
  32   2.0000      -0.967238       -26.3199
  33   2.0000      -0.887093       -24.1390
  34   2.0000      -0.863540       -23.4981
  35   2.0000      -0.860949       -23.4276
  36   2.0000      -0.854242       -23.2451
  37   2.0000      -0.853438       -23.2232
  38   2.0000      -0.850085       -23.1320
  39   2.0000      -0.770082       -20.9550
  40   2.0000      -0.727317       -19.7913
  41   2.0000      -0.712104       -19.3773
  42   2.0000      -0.701450       -19.0874
  43   2.0000      -0.698935       -19.0190
  44   2.0000      -0.689469       -18.7614
  45   2.0000      -0.676114       -18.3980
  46   2.0000      -0.644287       -17.5319
  47   2.0000      -0.615695       -16.7539
  48   2.0000      -0.603768       -16.4294
  49   2.0000      -0.594291       -16.1715
  50   2.0000      -0.585892       -15.9429
  51   2.0000      -0.550402       -14.9772
  52   2.0000      -0.545355       -14.8399
  53   2.0000      -0.540317       -14.7028
  54   2.0000      -0.536314       -14.5938
  55   2.0000      -0.532600       -14.4928
  56   2.0000      -0.527451       -14.3527
  57   2.0000      -0.525548       -14.3009
  58   2.0000      -0.517755       -14.0888
  59   2.0000      -0.505680       -13.7603
  60   2.0000      -0.499994       -13.6055
  61   2.0000      -0.498503       -13.5650
  62   2.0000      -0.494656       -13.4603
  63   2.0000      -0.488103       -13.2820
  64   2.0000      -0.465380       -12.6636
  65   2.0000      -0.454680       -12.3725
  66   2.0000      -0.453305       -12.3351
  67   2.0000      -0.447593       -12.1796
  68   2.0000      -0.432887       -11.7795
  69   2.0000      -0.421444       -11.4681
  70   2.0000      -0.418259       -11.3814
  71   2.0000      -0.414854       -11.2887
  72   2.0000      -0.412121       -11.2144
  73   2.0000      -0.411474       -11.1968
  74   2.0000      -0.407943       -11.1007
  75   2.0000      -0.371360       -10.1052
  76   2.0000      -0.347663        -9.4604
  77   2.0000      -0.346351        -9.4247
  78   2.0000      -0.330451        -8.9920
  79   2.0000      -0.327929        -8.9234
  80   2.0000      -0.324644        -8.8340
  81   2.0000      -0.321395        -8.7456
  82   2.0000      -0.320232        -8.7139
  83   2.0000      -0.316921        -8.6239
  84   0.0000      -0.045325        -1.2334
  85   0.0000      -0.017193        -0.4679
  86   0.0000      -0.007306        -0.1988
  87   0.0000      -0.004387        -0.1194
  88   0.0000       0.005301         0.1442

MULLIKEN ATOMIC CHARGES
-----------------------
   0 C :   -0.133710
   1 C :   -0.150115
   2 C :   -0.202686
   3 C :   -0.062868
   4 C :   -0.150692
   5 C :   -0.135733
   6 P :    0.637403
   7 O :   -0.595550
   8 C :   -0.072009
   9 C :   -0.148657
  10 C :   -0.135142
  11 C :   -0.134445
  12 C :   -0.148163
  13 C :   -0.200254
  14 C :   -0.078441
  15 C :   -0.181413
  16 C :   -0.175128
  17 C :   -0.004034
  18 C :   -0.157639
  19 C :   -0.136867
  20 C :    0.353742
  21 O :   -0.342913
  22 O :   -0.417539
  23 H :    0.151102
  24 H :    0.150866
  25 H :    0.194516
  26 H :    0.187184
  27 H :    0.151473
  28 H :    0.186875
  29 H :    0.151780
  30 H :    0.150837
  31 H :    0.150493
  32 H :    0.197621
  33 H :    0.202081
  34 H :    0.185071
  35 H :    0.177863
  36 H :    0.190161
  37 H :    0.344926
Sum of atomic charges:   -0.0000000

LOEWDIN ATOMIC CHARGES
----------------------
   0 C :   -0.129667
   1 C :   -0.139437
   2 C :   -0.138648
   3 C :   -0.230250
   4 C :   -0.113040
   5 C :   -0.133594
   6 P :    0.687168
   7 O :   -0.304631
   8 C :   -0.230860
   9 C :   -0.113304
  10 C :   -0.133549
  11 C :   -0.129432
  12 C :   -0.139428
  13 C :   -0.138124
  14 C :   -0.212908
  15 C :   -0.131722
  16 C :   -0.075158
  17 C :   -0.120417
  18 C :   -0.080648
  19 C :   -0.108058
  20 C :   -0.433439
  21 O :    0.081507
  22 O :    0.078839
  23 H :    0.149484
  24 H :    0.149640
  25 H :    0.155255
  26 H :    0.161317
  27 H :    0.150367
  28 H :    0.161113
  29 H :    0.150367
  30 H :    0.149497
  31 H :    0.149509
  32 H :    0.155740
  33 H :    0.157990
  34 H :    0.164046
  35 H :    0.160454
  36 H :    0.163440
  37 H :    0.210581

  Mayer bond orders larger than 0.100000
B(  0-C ,  1-C ) :   1.4436 B(  0-C ,  5-C ) :   1.4311 B(  0-C , 23-H ) :   0.9460
B(  1-C ,  2-C ) :   1.4881 B(  1-C , 24-H ) :   0.9422 B(  2-C ,  3-C ) :   1.3144
B(  2-C , 25-H ) :   0.9165 B(  3-C ,  4-C ) :   1.4347 B(  3-C ,  6-P ) :   0.9202
B(  4-C ,  5-C ) :   1.4396 B(  4-C , 26-H ) :   0.9092 B(  5-C , 27-H ) :   0.9470
B(  6-P ,  7-O ) :   1.9456 B(  6-P ,  8-C ) :   0.9215 B(  6-P , 14-C ) :   0.9149
B(  8-C ,  9-C ) :   1.4341 B(  8-C , 13-C ) :   1.3192 B(  9-C , 10-C ) :   1.4414
B(  9-C , 28-H ) :   0.9089 B( 10-C , 11-C ) :   1.4314 B( 10-C , 29-H ) :   0.9461
B( 11-C , 12-C ) :   1.4441 B( 11-C , 30-H ) :   0.9461 B( 12-C , 13-C ) :   1.4850
B( 12-C , 31-H ) :   0.9422 B( 13-C , 32-H ) :   0.9148 B( 14-C , 15-C ) :   1.3112
B( 14-C , 19-C ) :   1.4297 B( 15-C , 16-C ) :   1.4944 B( 15-C , 33-H ) :   0.9121
B( 16-C , 17-C ) :   1.4344 B( 16-C , 34-H ) :   0.9129 B( 17-C , 18-C ) :   1.3937
B( 17-C , 20-C ) :   1.0000 B( 18-C , 19-C ) :   1.4376 B( 18-C , 35-H ) :   0.9247
B( 19-C , 36-H ) :   0.9120 B( 20-C , 21-O ) :   2.0391 B( 20-C , 22-O ) :   1.1985
B( 22-O , 37-H ) :   0.8546

Dispersion correction           -0.002573757
FINAL SINGLE POINT ENERGY     -1300.107218607217

DIPOLE MOMENT
-------------

Method             : SCF
Type of density    : Electron Density
Multiplicity       :   1
Irrep              :   0
Energy             : -1300.1046448499121198 Eh
Relativity type    :
Basis              : AO
                                X                 Y                 Z
Electronic contribution:      8.537722909      -1.204685261       2.784915035
Nuclear contribution   :     -9.154944352       1.120920457      -3.752417266
                        -----------------------------------------
Total Dipole Moment    :     -0.617221443      -0.083764804      -0.967502231
                        -----------------------------------------
Magnitude (a.u.)       :      1.150669118
Magnitude (Debye)      :      2.924768464

Rotational constants in cm-1:             0.010190             0.005361             0.004278
Rotational constants in MHz :           305.480289           160.722820           128.246847

                             ****ORCA TERMINATED NORMALLY****
TOTAL RUN TIME: 0 days 0 hours 2 minutes 45 seconds 759 msec
