                         Program Version 6.0.0  -   RELEASE   -
|  1> ! RIJCOSX M062X def2-TZVP D3ZERO NormalSCF
|  2> %pal
|  3> nprocs 6
|  4> end
|  5>
|  6> * xyz 0 1
|  7>   C          -1.61578102781179     -3.41543928137048      0.79742855473855
|  8>   C          -1.54151356302322     -2.17763451847389      1.46238733341987
|  9>   C          -1.08076773449020     -1.03941503437381      0.78428522634035
| 10>   C          -0.68807243814247     -1.12359652937622     -0.56933960489093
| 11>   C          -0.77296767433253     -2.36669312333627     -1.22979713379689
| 12>   C          -1.23041263690927     -3.50885014593356     -0.54950367915533
| 13>   P          -0.00280726468031      0.32882298089632     -1.50654210208673
| 14>   C           1.61330740809719      0.52227108284979     -0.57831106150455
| 15>   C           2.55907524308685     -0.66300557437310     -0.80365203018590
| 16>   C           3.78184457463815     -0.62788834030069      0.12460996782486
| 17>   N           3.36601662812299     -0.64446276963545      1.52911349923930
| 18>   C          -1.02451278146669      1.68080743578986     -0.76296488628943
| 19>   C          -0.50412480034169      2.71864533813582      0.03855223529621
| 20>   C          -1.34510881287077      3.73346264623871      0.52923039784276
| 21>   C          -2.71690400103546      3.72255235281435      0.23406238445379
| 22>   C          -3.24634566409348      2.69214770009190     -0.56440898281560
| 23>   C          -2.40664749951981      1.68824022081473     -1.06492602608762
| 24>   H          -1.98029576969899     -4.30705716878300      1.33071213742958
| 25>   H          -1.84743801094146     -2.09999563661597      2.51747399092727
| 26>   H          -1.02945352359275     -0.07055484253392      1.30555183922367
| 27>   H          -0.47761230603829     -2.43445778975731     -2.28930754167695
| 28>   H          -1.29176995462574     -4.47378464351518     -1.07641959899770
| 29>   H           1.42961021506082      0.63023371314656      0.51165075782100
| 30>   H           2.09011595587384      1.46196106085147     -0.93344345927110
| 31>   H           2.01071142524003     -1.61631297388424     -0.62677282845131
| 32>   H           2.89744031086526     -0.70023527050208     -1.86124517658514
| 33>   H           4.34764031073986      0.31390218915956     -0.05294843870593
| 34>   H           4.47001401551001     -1.46267560938864     -0.16874674084725
| 35>   H           4.18301959486002     -0.56120057185873      2.14649234244191
| 36>   H           2.93290994696641     -1.55146003236500      1.75204861538513
| 37>   H           0.56507660585122      2.73934297106867      0.29426166139118
| 38>   H          -0.92170299017116      4.53540911216347      1.15405677134543
| 39>   H          -3.37412897651040      4.51541942307064      0.62285044313686
| 40>   H          -4.32133998021727      2.67476049278475     -0.80229362677498
| 41>   H          -2.82707382439891      0.88674113650093     -1.69414324013440
| 42> **                         ****END OF INPUT****

CARTESIAN COORDINATES (ANGSTROEM)
---------------------------------
  C     -1.615781   -3.415439    0.797429
  C     -1.541514   -2.177635    1.462387
  C     -1.080768   -1.039415    0.784285
  C     -0.688072   -1.123597   -0.569340
  C     -0.772968   -2.366693   -1.229797
  C     -1.230413   -3.508850   -0.549504
  P     -0.002807    0.328823   -1.506542
  C      1.613307    0.522271   -0.578311
  C      2.559075   -0.663006   -0.803652
  C      3.781845   -0.627888    0.124610
  N      3.366017   -0.644463    1.529113
  C     -1.024513    1.680807   -0.762965
  C     -0.504125    2.718645    0.038552
  C     -1.345109    3.733463    0.529230
  C     -2.716904    3.722552    0.234062
  C     -3.246346    2.692148   -0.564409
  C     -2.406647    1.688240   -1.064926
  H     -1.980296   -4.307057    1.330712
  H     -1.847438   -2.099996    2.517474
  H     -1.029454   -0.070555    1.305552
  H     -0.477612   -2.434458   -2.289308
  H     -1.291770   -4.473785   -1.076420
  H      1.429610    0.630234    0.511651
  H      2.090116    1.461961   -0.933443
  H      2.010711   -1.616313   -0.626773
  H      2.897440   -0.700235   -1.861245
  H      4.347640    0.313902   -0.052948
  H      4.470014   -1.462676   -0.168747
  H      4.183020   -0.561201    2.146492
  H      2.932910   -1.551460    1.752049
  H      0.565077    2.739343    0.294262
  H     -0.921703    4.535409    1.154057
  H     -3.374129    4.515419    0.622850
  H     -4.321340    2.674760   -0.802294
  H     -2.827074    0.886741   -1.694143

 Total Charge           Charge          ....    0
 Multiplicity           Mult            ....    1
 Number of Electrons    NEL             ....  130
 Basis Dimension        Dim             ....  641

ORBITAL ENERGIES
----------------

  NO   OCC          E(Eh)            E(eV)
   0   2.0000     -78.022267     -2123.0938
   1   2.0000     -14.729595      -400.8126
   2   2.0000     -10.563055      -287.4353
   3   2.0000     -10.550505      -287.0938
   4   2.0000     -10.550375      -287.0903
   5   2.0000     -10.549998      -287.0800
   6   2.0000     -10.549356      -287.0626
   7   2.0000     -10.548629      -287.0428
   8   2.0000     -10.548524      -287.0399
   9   2.0000     -10.547730      -287.0183
  10   2.0000     -10.547472      -287.0113
  11   2.0000     -10.546971      -286.9977
  12   2.0000     -10.546671      -286.9895
  13   2.0000     -10.546239      -286.9777
  14   2.0000     -10.545802      -286.9659
  15   2.0000     -10.537317      -286.7350
  16   2.0000     -10.534795      -286.6664
  17   2.0000      -6.838315      -186.0800
  18   2.0000      -4.952888      -134.7749
  19   2.0000      -4.952610      -134.7674
  20   2.0000      -4.952380      -134.7611
  21   2.0000      -0.986556       -26.8456
  22   2.0000      -0.955730       -26.0067
  23   2.0000      -0.949783       -25.8449
  24   2.0000      -0.873753       -23.7760
  25   2.0000      -0.845899       -23.0181
  26   2.0000      -0.838708       -22.8224
  27   2.0000      -0.836515       -22.7627
  28   2.0000      -0.831439       -22.6246
  29   2.0000      -0.763769       -20.7832
  30   2.0000      -0.705868       -19.2076
  31   2.0000      -0.684996       -18.6397
  32   2.0000      -0.682059       -18.5598
  33   2.0000      -0.672783       -18.3073
  34   2.0000      -0.659504       -17.9460
  35   2.0000      -0.622512       -16.9394
  36   2.0000      -0.585271       -15.9260
  37   2.0000      -0.569873       -15.5070
  38   2.0000      -0.562226       -15.2990
  39   2.0000      -0.530328       -14.4310
  40   2.0000      -0.521851       -14.2003
  41   2.0000      -0.515175       -14.0186
  42   2.0000      -0.514165       -13.9911
  43   2.0000      -0.509777       -13.8718
  44   2.0000      -0.497067       -13.5259
  45   2.0000      -0.484889       -13.1945
  46   2.0000      -0.482116       -13.1190
  47   2.0000      -0.475672       -12.9437
  48   2.0000      -0.467490       -12.7211
  49   2.0000      -0.449106       -12.2208
  50   2.0000      -0.433869       -11.8062
  51   2.0000      -0.432749       -11.7757
  52   2.0000      -0.422409       -11.4943
  53   2.0000      -0.407774       -11.0961
  54   2.0000      -0.401119       -10.9150
  55   2.0000      -0.400276       -10.8921
  56   2.0000      -0.396050       -10.7771
  57   2.0000      -0.368568       -10.0293
  58   2.0000      -0.363028        -9.8785
  59   2.0000      -0.321613        -8.7515
  60   2.0000      -0.311948        -8.4885
  61   2.0000      -0.307893        -8.3782
  62   2.0000      -0.306246        -8.3334
  63   2.0000      -0.303141        -8.2489
  64   2.0000      -0.265873        -7.2348
  65   0.0000       0.002775         0.0755
  66   0.0000       0.009724         0.2646
  67   0.0000       0.012783         0.3478
  68   0.0000       0.024925         0.6783
  69   0.0000       0.056391         1.5345

MULLIKEN ATOMIC CHARGES
-----------------------
   0 C :   -0.134695
   1 C :   -0.171811
   2 C :   -0.147880
   3 C :   -0.107380
   4 C :   -0.137245
   5 C :   -0.144052
   6 P :    0.169893
   7 C :   -0.401888
   8 C :   -0.345638
   9 C :   -0.156412
  10 N :   -0.561327
  11 C :   -0.032341
  12 C :   -0.171652
  13 C :   -0.161119
  14 C :   -0.141914
  15 C :   -0.151051
  16 C :   -0.154071
  17 H :    0.145085
  18 H :    0.145425
  19 H :    0.183939
  20 H :    0.156956
  21 H :    0.144662
  22 H :    0.203070
  23 H :    0.161374
  24 H :    0.168423
  25 H :    0.150308
  26 H :    0.136211
  27 H :    0.126622
  28 H :    0.232661
  29 H :    0.237016
  30 H :    0.173778
  31 H :    0.142593
  32 H :    0.143711
  33 H :    0.143596
  34 H :    0.155156
Sum of atomic charges:   -0.0000000

LOEWDIN ATOMIC CHARGES
----------------------
   0 C :   -0.142711
   1 C :   -0.143489
   2 C :   -0.130492
   3 C :   -0.278051
   4 C :   -0.152209
   5 C :   -0.146946
   6 P :    0.651382
   7 C :   -0.411123
   8 C :   -0.307235
   9 C :   -0.352097
  10 N :   -0.189982
  11 C :   -0.280102
  12 C :   -0.149440
  13 C :   -0.145531
  14 C :   -0.145561
  15 C :   -0.144306
  16 C :   -0.139137
  17 H :    0.146544
  18 H :    0.147440
  19 H :    0.156139
  20 H :    0.148244
  21 H :    0.146827
  22 H :    0.139741
  23 H :    0.135440
  24 H :    0.144044
  25 H :    0.141466
  26 H :    0.131377
  27 H :    0.117795
  28 H :    0.153458
  29 H :    0.156696
  30 H :    0.150113
  31 H :    0.146886
  32 H :    0.146185
  33 H :    0.147319
  34 H :    0.151318

  Mayer bond orders larger than 0.100000
B(  0-C ,  1-C ) :   1.4220 B(  0-C ,  5-C ) :   1.4497 B(  0-C , 17-H ) :   0.9474
B(  1-C ,  2-C ) :   1.4780 B(  1-C , 18-H ) :   0.9440 B(  2-C ,  3-C ) :   1.3299
B(  2-C , 19-H ) :   0.9277 B(  3-C ,  4-C ) :   1.3849 B(  3-C ,  6-P ) :   0.9468
B(  4-C ,  5-C ) :   1.4454 B(  4-C , 20-H ) :   0.9320 B(  5-C , 21-H ) :   0.9484
B(  6-P ,  7-C ) :   0.9629 B(  6-P , 11-C ) :   0.9796 B(  7-C ,  8-C ) :   0.9099
B(  7-C , 22-H ) :   0.9405 B(  7-C , 23-H ) :   0.9361 B(  8-C ,  9-C ) :   0.9470
B(  8-C , 24-H ) :   0.9859 B(  8-C , 25-H ) :   0.9756 B(  9-C , 10-N ) :   0.9558
B(  9-C , 26-H ) :   0.9745 B(  9-C , 27-H ) :   0.9756 B( 10-N , 28-H ) :   0.9310
B( 10-N , 29-H ) :   0.9234 B( 11-C , 12-C ) :   1.3579 B( 11-C , 16-C ) :   1.3806
B( 12-C , 13-C ) :   1.4606 B( 12-C , 30-H ) :   0.9239 B( 13-C , 14-C ) :   1.4559
B( 13-C , 31-H ) :   0.9437 B( 14-C , 15-C ) :   1.4184 B( 14-C , 32-H ) :   0.9472
B( 15-C , 16-C ) :   1.4800 B( 15-C , 33-H ) :   0.9478 B( 16-C , 34-H ) :   0.9372

Dispersion correction           -0.002098516
FINAL SINGLE POINT ENERGY      -978.475901195453

DIPOLE MOMENT
-------------

Method             : SCF
Type of density    : Electron Density
Multiplicity       :   1
Irrep              :   0
Energy             :  -978.4738026795129144 Eh
Relativity type    :
Basis              : AO
                                X                 Y                 Z
Electronic contribution:    -10.527407003       2.711831582      -6.001223111
Nuclear contribution   :     10.975240310      -3.148619579       6.571678228
                        -----------------------------------------
Total Dipole Moment    :      0.447833307      -0.436787997       0.570455117
                        -----------------------------------------
Magnitude (a.u.)       :      0.846615299
Magnitude (Debye)      :      2.151925075

Rotational constants in cm-1:             0.016432             0.010695             0.007866
Rotational constants in MHz :           492.624532           320.618455           235.806353

                             ****ORCA TERMINATED NORMALLY****
TOTAL RUN TIME: 0 days 0 hours 1 minutes 40 seconds 46 msec
