                         Program Version 6.0.0  -   RELEASE   -
|  1> ! RIJCOSX M062X def2-TZVP D3ZERO NormalSCF
|  2> %pal
|  3> nprocs 6
|  4> end
|  5>
|  6> * xyz 0 1
|  7>   C          -0.36597860861140      1.61008403795154     -0.26328718501511
|  8>   N          -1.03180386666254      0.79360277549292      0.76313254815947
|  9>   C          -1.62407016594772     -0.38203903749327      0.10781997821989
| 10>   N          -0.66219824311681     -1.18164905238119     -0.66563914668210
| 11>   C          -0.01064255793570     -0.29914646069011     -1.64530933608795
| 12>   N           0.63780573595480      0.87827519971912     -1.04927099714569
| 13>   C           1.79319981455858      0.50011936504380     -0.22974954511364
| 14>   P           1.38514461879254     -0.64422181935874      1.24941526794100
| 15>   C          -0.10420908751399      0.40651159456090      1.82912795050413
| 16>   C           0.31640609490366     -1.83809808644868      0.20536196176371
| 17>   H           0.11749606249872      2.48301392803820      0.22345294556814
| 18>   H          -1.14411781848139      1.98666919296051     -0.96145910243669
| 19>   H          -2.41318014915574     -0.02610804806205     -0.58861869531950
| 20>   H          -2.09947835328758     -1.02758665598171      0.87589852187931
| 21>   H          -0.78740561365297      0.05783413690114     -2.35526233467853
| 22>   H           0.74354895317950     -0.88103193031289     -2.21552042926114
| 23>   H           2.28119102038031      1.41728977232217      0.16559852797962
| 24>   H           2.54446342811814     -0.01385199263150     -0.86778358210693
| 25>   H          -0.65285783414800     -0.16882309147047      2.60615312790323
| 26>   H           0.28995382669500      1.31958751691081      2.32589269145930
| 27>   H           0.99865677397828     -2.46397476034835     -0.40996592086613
| 28>   H          -0.21192203054570     -2.52645558472215      0.90001275333561
| 29> **                         ****END OF INPUT****

CARTESIAN COORDINATES (ANGSTROEM)
---------------------------------
  C     -0.365979    1.610084   -0.263287
  N     -1.031804    0.793603    0.763133
  C     -1.624070   -0.382039    0.107820
  N     -0.662198   -1.181649   -0.665639
  C     -0.010643   -0.299146   -1.645309
  N      0.637806    0.878275   -1.049271
  C      1.793200    0.500119   -0.229750
  P      1.385145   -0.644222    1.249415
  C     -0.104209    0.406512    1.829128
  C      0.316406   -1.838098    0.205362
  H      0.117496    2.483014    0.223453
  H     -1.144118    1.986669   -0.961459
  H     -2.413180   -0.026108   -0.588619
  H     -2.099478   -1.027587    0.875899
  H     -0.787406    0.057834   -2.355262
  H      0.743549   -0.881032   -2.215520
  H      2.281191    1.417290    0.165599
  H      2.544463   -0.013852   -0.867784
  H     -0.652858   -0.168823    2.606153
  H      0.289954    1.319588    2.325893
  H      0.998657   -2.463975   -0.409966
  H     -0.211922   -2.526456    0.900013

 Total Charge           Charge          ....    0
 Multiplicity           Mult            ....    1
 Number of Electrons    NEL             ....   84
 Basis Dimension        Dim             ....  388

ORBITAL ENERGIES
----------------

  NO   OCC          E(Eh)            E(eV)
   0   2.0000     -78.016717     -2122.9428
   1   2.0000     -14.745906      -401.2565
   2   2.0000     -14.745851      -401.2550
   3   2.0000     -14.745804      -401.2537
   4   2.0000     -10.593897      -288.2746
   5   2.0000     -10.593872      -288.2739
   6   2.0000     -10.593849      -288.2733
   7   2.0000     -10.571249      -287.6583
   8   2.0000     -10.571205      -287.6571
   9   2.0000     -10.571194      -287.6568
  10   2.0000      -6.833454      -185.9477
  11   2.0000      -4.947961      -134.6409
  12   2.0000      -4.947351      -134.6243
  13   2.0000      -4.947343      -134.6241
  14   2.0000      -1.097148       -29.8549
  15   2.0000      -0.998437       -27.1688
  16   2.0000      -0.998407       -27.1680
  17   2.0000      -0.846931       -23.0462
  18   2.0000      -0.792535       -21.5660
  19   2.0000      -0.792392       -21.5621
  20   2.0000      -0.717993       -19.5376
  21   2.0000      -0.717936       -19.5360
  22   2.0000      -0.674850       -18.3636
  23   2.0000      -0.624977       -17.0065
  24   2.0000      -0.554188       -15.0802
  25   2.0000      -0.554163       -15.0795
  26   2.0000      -0.552940       -15.0463
  27   2.0000      -0.549215       -14.9449
  28   2.0000      -0.500139       -13.6095
  29   2.0000      -0.499980       -13.6051
  30   2.0000      -0.452823       -12.3219
  31   2.0000      -0.448645       -12.2083
  32   2.0000      -0.448564       -12.2061
  33   2.0000      -0.428209       -11.6522
  34   2.0000      -0.426138       -11.5958
  35   2.0000      -0.426070       -11.5940
  36   2.0000      -0.410957       -11.1827
  37   2.0000      -0.400276       -10.8921
  38   2.0000      -0.400022       -10.8852
  39   2.0000      -0.274194        -7.4612
  40   2.0000      -0.265439        -7.2230
  41   2.0000      -0.265417        -7.2224
  42   0.0000       0.056624         1.5408
  43   0.0000       0.057528         1.5654
  44   0.0000       0.057739         1.5712
  45   0.0000       0.088083         2.3969
  46   0.0000       0.097284         2.6472

MULLIKEN ATOMIC CHARGES
-----------------------
   0 C :   -0.259073
   1 N :   -0.122176
   2 C :   -0.258525
   3 N :   -0.121356
   4 C :   -0.259545
   5 N :   -0.121152
   6 C :   -0.353770
   7 P :    0.143835
   8 C :   -0.353534
   9 C :   -0.354497
  10 H :    0.179984
  11 H :    0.170090
  12 H :    0.170088
  13 H :    0.179787
  14 H :    0.170118
  15 H :    0.180039
  16 H :    0.168428
  17 H :    0.168127
  18 H :    0.168029
  19 H :    0.168426
  20 H :    0.168258
  21 H :    0.168418
Sum of atomic charges:   -0.0000000

LOEWDIN ATOMIC CHARGES
----------------------
   0 C :   -0.310844
   1 N :    0.054111
   2 C :   -0.310594
   3 N :    0.054142
   4 C :   -0.310759
   5 N :    0.054148
   6 C :   -0.439553
   7 P :    0.495768
   8 C :   -0.440768
   9 C :   -0.440680
  10 H :    0.135510
  11 H :    0.136658
  12 H :    0.136657
  13 H :    0.135467
  14 H :    0.136719
  15 H :    0.135423
  16 H :    0.129663
  17 H :    0.129713
  18 H :    0.129749
  19 H :    0.129831
  20 H :    0.129854
  21 H :    0.129784

  Mayer bond orders larger than 0.100000
B(  0-C ,  1-N ) :   0.9322 B(  0-C ,  5-N ) :   0.9342 B(  0-C , 10-H ) :   0.9906
B(  0-C , 11-H ) :   0.9854 B(  1-N ,  2-C ) :   0.9334 B(  1-N ,  8-C ) :   0.9192
B(  2-C ,  3-N ) :   0.9326 B(  2-C , 12-H ) :   0.9853 B(  2-C , 13-H ) :   0.9907
B(  3-N ,  4-C ) :   0.9327 B(  3-N ,  9-C ) :   0.9189 B(  4-C ,  5-N ) :   0.9334
B(  4-C , 14-H ) :   0.9855 B(  4-C , 15-H ) :   0.9906 B(  5-N ,  6-C ) :   0.9182
B(  6-C ,  7-P ) :   0.9868 B(  6-C , 16-H ) :   0.9525 B(  6-C , 17-H ) :   0.9524
B(  7-P ,  8-C ) :   0.9873 B(  7-P ,  9-C ) :   0.9875 B(  8-C , 18-H ) :   0.9523
B(  8-C , 19-H ) :   0.9525 B(  9-C , 20-H ) :   0.9524 B(  9-C , 21-H ) :   0.9523

Dispersion correction           -0.000601968
FINAL SINGLE POINT ENERGY      -741.407692065692

DIPOLE MOMENT
-------------

Method             : SCF
Type of density    : Electron Density
Multiplicity       :   1
Irrep              :   0
Energy             :  -741.4070900971988749 Eh
Relativity type    :
Basis              : AO
                                X                 Y                 Z
Electronic contribution:      3.321573275      -1.548054650       2.998401347
Nuclear contribution   :     -3.394762021       1.581309898      -3.063299185
                        -----------------------------------------
Total Dipole Moment    :     -0.073188745       0.033255248      -0.064897838
                        -----------------------------------------
Magnitude (a.u.)       :      0.103316181
Magnitude (Debye)      :      0.262608863

Rotational constants in cm-1:             0.055142             0.046525             0.046517
Rotational constants in MHz :          1653.121349          1394.772163          1394.529679

                             ****ORCA TERMINATED NORMALLY****
TOTAL RUN TIME: 0 days 0 hours 0 minutes 39 seconds 361 msec
