                         Program Version 6.0.0  -   RELEASE   -
|  1> ! RI BP86 def2-SVP D3BJ TIGHTSCF Opt
|  2> %pal
|  3> nprocs 6
|  4> end
|  5>
|  6> * xyz 0 1
|  7> C     -1.212467    3.167952   -0.099322
|  8> C      0.056621    2.332034   -0.183779
|  9> P      0.077361    0.953547    1.045446
| 10> C     -1.262265   -0.113608    0.411749
| 11> C     -2.346613   -0.403823    1.253162
| 12> C     -3.399415   -1.209064    0.810894
| 13> C     -3.381772   -1.734593   -0.478660
| 14> C     -2.312263   -1.455898   -1.326041
| 15> C     -1.259848   -0.649906   -0.884262
| 16> C      1.570013   -0.007023    0.601277
| 17> C      1.637727   -1.375836    0.915104
| 18> C      2.770217   -2.135443    0.607562
| 19> C      3.864815   -1.535896   -0.006455
| 20> C      3.828741   -0.176979   -0.304210
| 21> C      2.693974    0.581605    0.003611
| 22> H     -1.354739    3.582755    0.904640
| 23> H     -1.155113    4.005878   -0.802064
| 24> H     -2.103230    2.584351   -0.353970
| 25> H      0.905355    2.994344    0.018455
| 26> H      0.176041    1.955421   -1.205167
| 27> H     -2.382273   -0.004301    2.264710
| 28> H     -4.232031   -1.424789    1.475234
| 29> H     -4.199903   -2.361847   -0.822440
| 30> H     -2.293404   -1.867074   -2.331897
| 31> H     -0.433519   -0.453698   -1.563800
| 32> H      0.801985   -1.871820    1.405854
| 33> H      2.794208   -3.193699    0.853638
| 34> H      4.747131   -2.123988   -0.243683
| 35> H      4.687240    0.299037   -0.770999
| 36> H      2.717427    1.642359   -0.227573
| 37> **                         ****END OF INPUT****
 Total Charge           Charge          ....    0
 Multiplicity           Mult            ....    1
 Number of Electrons    NEL             ....  114
Dispersion correction           -0.064564388
FINAL SINGLE POINT ENERGY      -883.469454569497
Dispersion correction             ... done (  0.1 sec)
Dispersion correction           -0.064681025
FINAL SINGLE POINT ENERGY      -883.474009171756
Dispersion correction             ... done (  0.1 sec)
Dispersion correction           -0.064870609
FINAL SINGLE POINT ENERGY      -883.474598268873
Dispersion correction             ... done (  0.1 sec)
FINAL SINGLE POINT ENERGY      -883.474792766794
FINAL SINGLE POINT ENERGY      -883.474850111978
FINAL SINGLE POINT ENERGY      -883.474880502050
FINAL SINGLE POINT ENERGY      -883.474898443526
FINAL SINGLE POINT ENERGY      -883.474914627715
Dispersion correction             ... done (  0.1 sec)
Dispersion correction           -0.064784828
FINAL SINGLE POINT ENERGY      -883.474919439724
Dispersion correction             ... done (  0.1 sec)
Dispersion correction           -0.064769673
FINAL SINGLE POINT ENERGY      -883.474922063638
Dispersion correction             ... done (  0.1 sec)
                    ***********************HURRAY********************

CARTESIAN COORDINATES (ANGSTROEM)
---------------------------------
  C     -1.267650    3.122085    0.099908
  C      0.042522    2.337664   -0.018415
  P      0.101645    0.896347    1.188181
  C     -1.239571   -0.154630    0.449087
  C     -2.470418   -0.237151    1.133340
  C     -3.539428   -0.975018    0.596281
  C     -3.383458   -1.647212   -0.626667
  C     -2.157096   -1.577227   -1.312550
  C     -1.092481   -0.835385   -0.779517
  C      1.590920   -0.028869    0.602058
  C      1.765395   -1.350719    1.076614
  C      2.893252   -2.100484    0.717623
  C      3.881834   -1.538103   -0.110734
  C      3.726928   -0.223752   -0.577058
  C      2.589563    0.525491   -0.226518
  H     -1.420824    3.504002    1.130462
  H     -1.272351    3.992313   -0.587987
  H     -2.140947    2.487490   -0.154800
  H      0.907616    2.991732    0.224180
  H      0.189622    1.962309   -1.054417
  H     -2.585757    0.281936    2.098494
  H     -4.495471   -1.030797    1.139631
  H     -4.217134   -2.231577   -1.045751
  H     -2.030836   -2.106115   -2.270202
  H     -0.131605   -0.787277   -1.315626
  H      0.997235   -1.798123    1.728181
  H      3.005247   -3.130765    1.089719
  H      4.770842   -2.124397   -0.389228
  H      4.494933    0.225631   -1.225842
  H      2.487473    1.550599   -0.611433

 Multiplicity           Mult            ....    1
 Number of Electrons    NEL             ....  114
 Basis Dimension        Dim             ....  289

ORBITAL ENERGIES
----------------

  NO   OCC          E(Eh)            E(eV)
   0   2.0000     -76.339773     -2077.3108
   1   2.0000      -9.924555      -270.0609
   2   2.0000      -9.924325      -270.0546
   3   2.0000      -9.923929      -270.0438
   4   2.0000      -9.923592      -270.0347
   5   2.0000      -9.923009      -270.0188
   6   2.0000      -9.922863      -270.0148
   7   2.0000      -9.922551      -270.0063
   8   2.0000      -9.922157      -269.9956
   9   2.0000      -9.922072      -269.9933
  10   2.0000      -9.921337      -269.9733
  11   2.0000      -9.920931      -269.9623
  12   2.0000      -9.920678      -269.9554
  13   2.0000      -9.920158      -269.9412
  14   2.0000      -9.912816      -269.7414
  15   2.0000      -6.308899      -171.6739
  16   2.0000      -4.530538      -123.2822
  17   2.0000      -4.530097      -123.2702
  18   2.0000      -4.526675      -123.1771
  19   2.0000      -0.775054       -21.0903
  20   2.0000      -0.769104       -20.9284
  21   2.0000      -0.703748       -19.1499
  22   2.0000      -0.673947       -18.3390
  23   2.0000      -0.670636       -18.2489
  24   2.0000      -0.668156       -18.1815
  25   2.0000      -0.665089       -18.0980
  26   2.0000      -0.586071       -15.9478
  27   2.0000      -0.549394       -14.9498
  28   2.0000      -0.543000       -14.7758
  29   2.0000      -0.533481       -14.5167
  30   2.0000      -0.532850       -14.4996
  31   2.0000      -0.493759       -13.4359
  32   2.0000      -0.464322       -12.6348
  33   2.0000      -0.447501       -12.1771
  34   2.0000      -0.408838       -11.1251
  35   2.0000      -0.406058       -11.0494
  36   2.0000      -0.403619       -10.9830
  37   2.0000      -0.398193       -10.8354
  38   2.0000      -0.394958       -10.7474
  39   2.0000      -0.383663       -10.4400
  40   2.0000      -0.375934       -10.2297
  41   2.0000      -0.374687       -10.1957
  42   2.0000      -0.359940        -9.7945
  43   2.0000      -0.336175        -9.1478
  44   2.0000      -0.335213        -9.1216
  45   2.0000      -0.328962        -8.9515
  46   2.0000      -0.326079        -8.8731
  47   2.0000      -0.310937        -8.4610
  48   2.0000      -0.305507        -8.3133
  49   2.0000      -0.305036        -8.3004
  50   2.0000      -0.284399        -7.7389
  51   2.0000      -0.278795        -7.5864
  52   2.0000      -0.243525        -6.6267
  53   2.0000      -0.235351        -6.4042
  54   2.0000      -0.234359        -6.3772
  55   2.0000      -0.230129        -6.2621
  56   2.0000      -0.193890        -5.2760
  57   0.0000      -0.057222        -1.5571
  58   0.0000      -0.050077        -1.3627
  59   0.0000      -0.048884        -1.3302
  60   0.0000      -0.039337        -1.0704
  61   0.0000       0.024725         0.6728

MULLIKEN ATOMIC CHARGES
-----------------------
   0 C :   -0.035396
   1 C :   -0.209883
   2 P :    0.218799
   3 C :   -0.147943
   4 C :    0.009930
   5 C :   -0.003013
   6 C :    0.003540
   7 C :    0.002443
   8 C :    0.018208
   9 C :   -0.127764
  10 C :    0.007875
  11 C :   -0.001833
  12 C :    0.000284
  13 C :    0.004995
  14 C :   -0.022610
  15 H :    0.038954
  16 H :    0.037968
  17 H :    0.050260
  18 H :    0.068437
  19 H :    0.054300
  20 H :    0.000044
  21 H :    0.004708
  22 H :    0.005348
  23 H :    0.003279
  24 H :    0.013585
  25 H :    0.004124
  26 H :    0.003912
  27 H :    0.003051
  28 H :    0.000475
  29 H :   -0.006074
Sum of atomic charges:   -0.0000000

LOEWDIN ATOMIC CHARGES
----------------------
   0 C :   -0.082244
   1 C :   -0.184989
   2 P :    0.479606
   3 C :   -0.171731
   4 C :   -0.037893
   5 C :   -0.032641
   6 C :   -0.027896
   7 C :   -0.030911
   8 C :   -0.029027
   9 C :   -0.173981
  10 C :   -0.032947
  11 C :   -0.030158
  12 C :   -0.034254
  13 C :   -0.030845
  14 C :   -0.047630
  15 H :    0.029634
  16 H :    0.032346
  17 H :    0.032160
  18 H :    0.029211
  19 H :    0.024350
  20 H :    0.029033
  21 H :    0.033344
  22 H :    0.033008
  23 H :    0.033160
  24 H :    0.033861
  25 H :    0.031619
  26 H :    0.033353
  27 H :    0.032214
  28 H :    0.032279
  29 H :    0.027967

  Mayer bond orders larger than 0.100000
B(  0-C ,  1-C ) :   1.0859 B(  0-C , 15-H ) :   0.9628 B(  0-C , 16-H ) :   0.9605
B(  0-C , 17-H ) :   0.9644 B(  1-C ,  2-P ) :   0.9827 B(  1-C , 18-H ) :   0.9306
B(  1-C , 19-H ) :   0.9215 B(  2-P ,  3-C ) :   0.9311 B(  2-P ,  9-C ) :   0.9194
B(  3-C ,  4-C ) :   1.3765 B(  3-C ,  8-C ) :   1.3695 B(  4-C ,  5-C ) :   1.3806
B(  4-C , 20-H ) :   0.9741 B(  5-C ,  6-C ) :   1.3891 B(  5-C , 21-H ) :   0.9765
B(  6-C ,  7-C ) :   1.3687 B(  6-C , 22-H ) :   0.9757 B(  7-C ,  8-C ) :   1.4002
B(  7-C , 23-H ) :   0.9745 B(  8-C , 24-H ) :   0.9652 B(  9-C , 10-C ) :   1.3583
B(  9-C , 14-C ) :   1.3805 B( 10-C , 11-C ) :   1.4212 B( 10-C , 25-H ) :   0.9707
B( 11-C , 12-C ) :   1.3652 B( 11-C , 26-H ) :   0.9755 B( 12-C , 13-C ) :   1.3908
B( 12-C , 27-H ) :   0.9758 B( 13-C , 14-C ) :   1.3814 B( 13-C , 28-H ) :   0.9729
B( 14-C , 29-H ) :   0.9682

Dispersion correction           -0.064763050
FINAL SINGLE POINT ENERGY      -883.474922798581

DIPOLE MOMENT
-------------

Method             : SCF
Type of density    : Electron Density
Multiplicity       :   1
Irrep              :   0
Energy             :  -883.4101597481883346 Eh
Relativity type    :
Basis              : AO
                                X                 Y                 Z
Electronic contribution:      2.424948389      -4.321564073       4.670738251
Nuclear contribution   :     -2.538162857       4.269527886      -5.172163710
                        -----------------------------------------
Total Dipole Moment    :     -0.113214468      -0.052036187      -0.501425459
                        -----------------------------------------
Magnitude (a.u.)       :      0.516674725
Magnitude (Debye)      :      1.313282782

Rotational constants in cm-1:             0.027611             0.012762             0.010137
Rotational constants in MHz :           827.755000           382.609626           303.891238

                             ****ORCA TERMINATED NORMALLY****
TOTAL RUN TIME: 0 days 0 hours 2 minutes 1 seconds 115 msec
