                         Program Version 6.0.0  -   RELEASE   -
|  1> ! RIJCOSX M062X def2-TZVP D3ZERO NormalSCF
|  2> %pal
|  3> nprocs 6
|  4> end
|  5>
|  6> * xyz 0 1
|  7>   C           4.16342726969649     -0.22697205690910      1.23828551240071
|  8>   C           3.54480695561085      0.50187165126478      0.20817581509166
|  9>   C           2.14358981452296      0.55858846998105      0.12968149612885
| 10>   C           1.35968495454853     -0.12502607674991      1.08048218568358
| 11>   C           1.98136017871154     -0.84188730121098      2.12301718652039
| 12>   C           3.38143344175009     -0.89379771989563      2.19767216902676
| 13>   P          -0.47246618099615     -0.14586868737162      1.05757946962127
| 14>   O          -1.08649487545273     -0.33706914095472      2.43399541692975
| 15>   C          -0.96970270588553      1.42557013161389      0.25703032757248
| 16>   C          -1.01924981940583      1.60669235988052     -1.13962076061496
| 17>   C          -1.38786925702661      2.85376869753916     -1.67020536095025
| 18>   C          -1.71576036016779      3.91570439361527     -0.81006424181247
| 19>   C          -1.68395756606806      3.72983840597721      0.58314116209925
| 20>   C          -1.31470318499753      2.48658590915299      1.11853883179496
| 21>   C          -0.93176832486102     -1.46667682811229     -0.12651447219324
| 22>   C          -0.13028123040704     -1.84516346913795     -1.22219911796733
| 23>   C          -0.57055114040458     -2.85350375390537     -2.09511250773555
| 24>   C          -1.80315268191955     -3.49025891508035     -1.87085548354829
| 25>   C          -2.59425101550519     -3.12561186547181     -0.76738670863206
| 26>   C          -2.16003764425295     -2.11771534738307      0.10684111407011
| 27>   H           5.26185910868322     -0.26682912347798      1.29972883621210
| 28>   H           4.15686292696704      1.03802994212806     -0.53333493618198
| 29>   H           1.65978634849613      1.15174538459784     -0.66185610994220
| 30>   H           1.34974545970367     -1.33973919387032      2.87504132045853
| 31>   H           3.86648133796289     -1.45242964215026      3.01286735947129
| 32>   H          -0.78780226928946      0.76750013025750     -1.81374125968677
| 33>   H          -1.42874186058410      2.99426712091318     -2.76130646092164
| 34>   H          -2.00792810567124      4.89118404361021     -1.22838467961258
| 35>   H          -1.95496211329050      4.55767029205531      1.25630591138981
| 36>   H          -1.30234462789795      2.31310317633647      2.20577444827272
| 37>   H           0.84732937728021     -1.36502002521840     -1.38395533460089
| 38>   H           0.05693311214398     -3.15043174566673     -2.94952575156024
| 39>   H          -2.14429209563585     -4.28271478456440     -2.55464628394967
| 40>   H          -3.55291486402133     -3.63471114938719     -0.58385817618472
| 41>   H          -2.75406936233663     -1.83069628240538      0.98841208335063
| 42> **                         ****END OF INPUT****

CARTESIAN COORDINATES (ANGSTROEM)
---------------------------------
  C      4.163427   -0.226972    1.238286
  C      3.544807    0.501872    0.208176
  C      2.143590    0.558588    0.129681
  C      1.359685   -0.125026    1.080482
  C      1.981360   -0.841887    2.123017
  C      3.381433   -0.893798    2.197672
  P     -0.472466   -0.145869    1.057579
  O     -1.086495   -0.337069    2.433995
  C     -0.969703    1.425570    0.257030
  C     -1.019250    1.606692   -1.139621
  C     -1.387869    2.853769   -1.670205
  C     -1.715760    3.915704   -0.810064
  C     -1.683958    3.729838    0.583141
  C     -1.314703    2.486586    1.118539
  C     -0.931768   -1.466677   -0.126514
  C     -0.130281   -1.845163   -1.222199
  C     -0.570551   -2.853504   -2.095113
  C     -1.803153   -3.490259   -1.870855
  C     -2.594251   -3.125612   -0.767387
  C     -2.160038   -2.117715    0.106841
  H      5.261859   -0.266829    1.299729
  H      4.156863    1.038030   -0.533335
  H      1.659786    1.151745   -0.661856
  H      1.349745   -1.339739    2.875041
  H      3.866481   -1.452430    3.012867
  H     -0.787802    0.767500   -1.813741
  H     -1.428742    2.994267   -2.761306
  H     -2.007928    4.891184   -1.228385
  H     -1.954962    4.557670    1.256306
  H     -1.302345    2.313103    2.205774
  H      0.847329   -1.365020   -1.383955
  H      0.056933   -3.150432   -2.949526
  H     -2.144292   -4.282715   -2.554646
  H     -3.552915   -3.634711   -0.583858
  H     -2.754069   -1.830696    0.988412

 Total Charge           Charge          ....    0
 Multiplicity           Mult            ....    1
 Number of Electrons    NEL             ....  146
 Basis Dimension        Dim             ....  716

ORBITAL ENERGIES
----------------

  NO   OCC          E(Eh)            E(eV)
   0   2.0000     -78.096259     -2125.1072
   1   2.0000     -19.567384      -532.4556
   2   2.0000     -10.562683      -287.4252
   3   2.0000     -10.562648      -287.4243
   4   2.0000     -10.562644      -287.4241
   5   2.0000     -10.560965      -287.3785
   6   2.0000     -10.560959      -287.3783
   7   2.0000     -10.560894      -287.3765
   8   2.0000     -10.559159      -287.3293
   9   2.0000     -10.559088      -287.3274
  10   2.0000     -10.559061      -287.3267
  11   2.0000     -10.558584      -287.3137
  12   2.0000     -10.558561      -287.3130
  13   2.0000     -10.558488      -287.3111
  14   2.0000     -10.557948      -287.2964
  15   2.0000     -10.557928      -287.2958
  16   2.0000     -10.557852      -287.2937
  17   2.0000     -10.557256      -287.2775
  18   2.0000     -10.557230      -287.2768
  19   2.0000     -10.557142      -287.2744
  20   2.0000      -6.902543      -187.8277
  21   2.0000      -5.019660      -136.5919
  22   2.0000      -5.019657      -136.5918
  23   2.0000      -5.017955      -136.5455
  24   2.0000      -1.062399       -28.9093
  25   2.0000      -0.967448       -26.3256
  26   2.0000      -0.962487       -26.1906
  27   2.0000      -0.962454       -26.1897
  28   2.0000      -0.869976       -23.6733
  29   2.0000      -0.849706       -23.1217
  30   2.0000      -0.849361       -23.1123
  31   2.0000      -0.849312       -23.1109
  32   2.0000      -0.844992       -22.9934
  33   2.0000      -0.844967       -22.9927
  34   2.0000      -0.735654       -20.0182
  35   2.0000      -0.697898       -18.9908
  36   2.0000      -0.695291       -18.9198
  37   2.0000      -0.695234       -18.9183
  38   2.0000      -0.684199       -18.6180
  39   2.0000      -0.684178       -18.6174
  40   2.0000      -0.637580       -17.3494
  41   2.0000      -0.599049       -16.3009
  42   2.0000      -0.599020       -16.3002
  43   2.0000      -0.576117       -15.6769
  44   2.0000      -0.534591       -14.5470
  45   2.0000      -0.534576       -14.5465
  46   2.0000      -0.528493       -14.3810
  47   2.0000      -0.522256       -14.2113
  48   2.0000      -0.522220       -14.2103
  49   2.0000      -0.518080       -14.0977
  50   2.0000      -0.495652       -13.4874
  51   2.0000      -0.494727       -13.4622
  52   2.0000      -0.494657       -13.4603
  53   2.0000      -0.488783       -13.3005
  54   2.0000      -0.488685       -13.2978
  55   2.0000      -0.455043       -12.3824
  56   2.0000      -0.446825       -12.1587
  57   2.0000      -0.446782       -12.1576
  58   2.0000      -0.441344       -12.0096
  59   2.0000      -0.421635       -11.4733
  60   2.0000      -0.412212       -11.2169
  61   2.0000      -0.412176       -11.2159
  62   2.0000      -0.405679       -11.0391
  63   2.0000      -0.405581       -11.0364
  64   2.0000      -0.405378       -11.0309
  65   2.0000      -0.339768        -9.2456
  66   2.0000      -0.339730        -9.2445
  67   2.0000      -0.320267        -8.7149
  68   2.0000      -0.320207        -8.7133
  69   2.0000      -0.318516        -8.6673
  70   2.0000      -0.314833        -8.5670
  71   2.0000      -0.314786        -8.5658
  72   2.0000      -0.310568        -8.4510
  73   0.0000      -0.011504        -0.3130
  74   0.0000      -0.011383        -0.3098
  75   0.0000      -0.000070        -0.0019
  76   0.0000       0.002941         0.0800
  77   0.0000       0.012869         0.3502

MULLIKEN ATOMIC CHARGES
-----------------------
   0 C :   -0.134212
   1 C :   -0.150649
   2 C :   -0.196155
   3 C :   -0.075312
   4 C :   -0.146989
   5 C :   -0.136689
   6 P :    0.636404
   7 O :   -0.599615
   8 C :   -0.076745
   9 C :   -0.196800
  10 C :   -0.150018
  11 C :   -0.134863
  12 C :   -0.136519
  13 C :   -0.147730
  14 C :   -0.076149
  15 C :   -0.198579
  16 C :   -0.149945
  17 C :   -0.133837
  18 C :   -0.137994
  19 C :   -0.145943
  20 H :    0.149036
  21 H :    0.148687
  22 H :    0.196024
  23 H :    0.185887
  24 H :    0.150092
  25 H :    0.195747
  26 H :    0.148635
  27 H :    0.149484
  28 H :    0.150040
  29 H :    0.185400
  30 H :    0.196005
  31 H :    0.148465
  32 H :    0.149467
  33 H :    0.149914
  34 H :    0.185459
Sum of atomic charges:    0.0000000

LOEWDIN ATOMIC CHARGES
----------------------
   0 C :   -0.131887
   1 C :   -0.141236
   2 C :   -0.138258
   3 C :   -0.229351
   4 C :   -0.113776
   5 C :   -0.135224
   6 P :    0.686322
   7 O :   -0.307823
   8 C :   -0.229497
   9 C :   -0.138400
  10 C :   -0.141266
  11 C :   -0.131894
  12 C :   -0.135202
  13 C :   -0.113767
  14 C :   -0.229464
  15 C :   -0.138416
  16 C :   -0.141293
  17 C :   -0.131908
  18 C :   -0.135262
  19 C :   -0.113767
  20 H :    0.148734
  21 H :    0.148752
  22 H :    0.155726
  23 H :    0.160874
  24 H :    0.149737
  25 H :    0.155661
  26 H :    0.148771
  27 H :    0.148755
  28 H :    0.149716
  29 H :    0.160873
  30 H :    0.155600
  31 H :    0.148781
  32 H :    0.148734
  33 H :    0.149706
  34 H :    0.160948

  Mayer bond orders larger than 0.100000
B(  0-C ,  1-C ) :   1.4445 B(  0-C ,  5-C ) :   1.4308 B(  0-C , 20-H ) :   0.9467
B(  1-C ,  2-C ) :   1.4817 B(  1-C , 21-H ) :   0.9432 B(  2-C ,  3-C ) :   1.3234
B(  2-C , 22-H ) :   0.9156 B(  3-C ,  4-C ) :   1.4348 B(  3-C ,  6-P ) :   0.9197
B(  4-C ,  5-C ) :   1.4404 B(  4-C , 23-H ) :   0.9091 B(  5-C , 24-H ) :   0.9473
B(  6-P ,  7-O ) :   1.9410 B(  6-P ,  8-C ) :   0.9186 B(  6-P , 14-C ) :   0.9191
B(  8-C ,  9-C ) :   1.3214 B(  8-C , 13-C ) :   1.4374 B(  9-C , 10-C ) :   1.4833
B(  9-C , 25-H ) :   0.9155 B( 10-C , 11-C ) :   1.4441 B( 10-C , 26-H ) :   0.9432
B( 11-C , 12-C ) :   1.4307 B( 11-C , 27-H ) :   0.9465 B( 12-C , 13-C ) :   1.4407
B( 12-C , 28-H ) :   0.9472 B( 13-C , 29-H ) :   0.9091 B( 14-C , 15-C ) :   1.3226
B( 14-C , 19-C ) :   1.4353 B( 15-C , 16-C ) :   1.4833 B( 15-C , 30-H ) :   0.9161
B( 16-C , 17-C ) :   1.4445 B( 16-C , 31-H ) :   0.9434 B( 17-C , 18-C ) :   1.4317
B( 17-C , 32-H ) :   0.9462 B( 18-C , 19-C ) :   1.4398 B( 18-C , 33-H ) :   0.9475
B( 19-C , 34-H ) :   0.9096

Dispersion correction           -0.002270580
FINAL SINGLE POINT ENERGY     -1111.513867478496

DIPOLE MOMENT
-------------

Method             : SCF
Type of density    : Electron Density
Multiplicity       :   1
Irrep              :   0
Energy             : -1111.5115968983891435 Eh
Relativity type    :
Basis              : AO
                                X                 Y                 Z
Electronic contribution:     -2.210478236      -0.681689290       4.946562372
Nuclear contribution   :      2.884341605       0.890913772      -6.454915603
                        -----------------------------------------
Total Dipole Moment    :      0.673863369       0.209224482      -1.508353231
                        -----------------------------------------
Magnitude (a.u.)       :      1.665231573
Magnitude (Debye)      :      4.232682282

Rotational constants in cm-1:             0.010686             0.010669             0.006942
Rotational constants in MHz :           320.366601           319.854411           208.110482

                             ****ORCA TERMINATED NORMALLY****
TOTAL RUN TIME: 0 days 0 hours 1 minutes 44 seconds 113 msec
