                         Program Version 6.0.0  -   RELEASE   -
|  1> ! RIJCOSX M062X def2-TZVP D3ZERO NormalSCF
|  2> %pal
|  3> nprocs 6
|  4> end
|  5>
|  6> * xyz 0 1
|  7>   C           5.22051783441943     -0.21606785429760      0.74939679869469
|  8>   C           4.15293752573314     -0.71846111115664     -0.22722947305117
|  9>   C           2.72299959584200     -0.44827369840549      0.25729139749912
| 10>   C           1.64382333177851     -0.94347400430031     -0.71354643730880
| 11>   P          -0.03725780644501     -0.75063320560819      0.01539502946370
| 12>   O          -0.17217685280375     -1.37519462851257      1.39801947788019
| 13>   C          -1.20302656519620     -1.38330466014251     -1.26778319284941
| 14>   C          -2.67997052925210     -1.11350661025168     -0.93661158401134
| 15>   C          -3.20334377705210     -1.91170000428746      0.26679863371145
| 16>   C          -4.64567228075900     -1.55489168209880      0.63275287099823
| 17>   C          -0.33278221686798      1.06127141197902      0.06153925828076
| 18>   C          -0.62213069100565      1.62061278240601      1.32122951905584
| 19>   C          -0.86008432675806      2.99955253708357      1.43930104450569
| 20>   C          -0.81011868741944      3.82199168661974      0.30107921131483
| 21>   C          -0.52184537614404      3.26631309909264     -0.95849990292616
| 22>   C          -0.28346576962355      1.88841519680659     -1.07947285244445
| 23>   H           5.11200388564549     -0.69712623746687      1.74404719826023
| 24>   H           5.14077797361328      0.88066931088082      0.90369603824224
| 25>   H           6.24530490156939     -0.42917319349541      0.38300227881688
| 26>   H           4.30046554292101     -0.24358193111831     -1.22350279164321
| 27>   H           4.28014499810588     -1.81176023724328     -0.39397499518499
| 28>   H           2.55469855721611     -0.93399475093105      1.24280247373623
| 29>   H           2.58773127351299      0.64274941803683      0.43014877139504
| 30>   H           1.77142972237364     -2.02768509851492     -0.92645410175241
| 31>   H           1.68662045529397     -0.40944825816409     -1.68786356256219
| 32>   H          -1.00369697482951     -2.47346980189840     -1.35970922498849
| 33>   H          -0.91501974702242     -0.91844084296893     -2.23558761864901
| 34>   H          -2.81566226411779     -0.02449448644800     -0.74864808083447
| 35>   H          -3.29640113022923     -1.34136285262177     -1.83473791152362
| 36>   H          -3.12792762616614     -2.99833673600561      0.03632804088920
| 37>   H          -2.52648195900531     -1.74530838732336      1.13110332264239
| 38>   H          -4.73407956353108     -0.48417799909537      0.91461081609866
| 39>   H          -5.34077590007904     -1.73067091165332     -0.21629572830960
| 40>   H          -5.00859660565698     -2.15525947295574      1.49155910022819
| 41>   H          -0.65262321115980      0.94699128540581      2.19221062643619
| 42>   H          -1.08599136816279      3.43563484380957      2.42471874877667
| 43>   H          -0.99711749880708      4.90300849504510      0.39353952128187
| 44>   H          -0.48348073667456      3.91109646382116     -1.85007064321614
| 45>   H          -0.05972313325626      1.46149312597883     -2.07058407695280
| 46> **                         ****END OF INPUT****

CARTESIAN COORDINATES (ANGSTROEM)
---------------------------------
  C      5.220518   -0.216068    0.749397
  C      4.152938   -0.718461   -0.227229
  C      2.723000   -0.448274    0.257291
  C      1.643823   -0.943474   -0.713546
  P     -0.037258   -0.750633    0.015395
  O     -0.172177   -1.375195    1.398019
  C     -1.203027   -1.383305   -1.267783
  C     -2.679971   -1.113507   -0.936612
  C     -3.203344   -1.911700    0.266799
  C     -4.645672   -1.554892    0.632753
  C     -0.332782    1.061271    0.061539
  C     -0.622131    1.620613    1.321230
  C     -0.860084    2.999553    1.439301
  C     -0.810119    3.821992    0.301079
  C     -0.521845    3.266313   -0.958500
  C     -0.283466    1.888415   -1.079473
  H      5.112004   -0.697126    1.744047
  H      5.140778    0.880669    0.903696
  H      6.245305   -0.429173    0.383002
  H      4.300466   -0.243582   -1.223503
  H      4.280145   -1.811760   -0.393975
  H      2.554699   -0.933995    1.242802
  H      2.587731    0.642749    0.430149
  H      1.771430   -2.027685   -0.926454
  H      1.686620   -0.409448   -1.687864
  H     -1.003697   -2.473470   -1.359709
  H     -0.915020   -0.918441   -2.235588
  H     -2.815662   -0.024494   -0.748648
  H     -3.296401   -1.341363   -1.834738
  H     -3.127928   -2.998337    0.036328
  H     -2.526482   -1.745308    1.131103
  H     -4.734080   -0.484178    0.914611
  H     -5.340776   -1.730671   -0.216296
  H     -5.008597   -2.155259    1.491559
  H     -0.652623    0.946991    2.192211
  H     -1.085991    3.435635    2.424719
  H     -0.997117    4.903008    0.393540
  H     -0.483481    3.911096   -1.850071
  H     -0.059723    1.461493   -2.070584

 Total Charge           Charge          ....    0
 Multiplicity           Mult            ....    1
 Number of Electrons    NEL             ....  130
 Basis Dimension        Dim             ....  640

ORBITAL ENERGIES
----------------

  NO   OCC          E(Eh)            E(eV)
   0   2.0000     -78.087801     -2124.8771
   1   2.0000     -19.561219      -532.2878
   2   2.0000     -10.565601      -287.5046
   3   2.0000     -10.560781      -287.3734
   4   2.0000     -10.560036      -287.3532
   5   2.0000     -10.557839      -287.2934
   6   2.0000     -10.557104      -287.2734
   7   2.0000     -10.555919      -287.2412
   8   2.0000     -10.551307      -287.1157
   9   2.0000     -10.549675      -287.0712
  10   2.0000     -10.541577      -286.8509
  11   2.0000     -10.540070      -286.8099
  12   2.0000     -10.537958      -286.7524
  13   2.0000     -10.528342      -286.4908
  14   2.0000     -10.523480      -286.3584
  15   2.0000     -10.520955      -286.2898
  16   2.0000      -6.894601      -187.6116
  17   2.0000      -5.011808      -136.3782
  18   2.0000      -5.011341      -136.3655
  19   2.0000      -5.009898      -136.3262
  20   2.0000      -1.056601       -28.7516
  21   2.0000      -0.964300       -26.2399
  22   2.0000      -0.902356       -24.5544
  23   2.0000      -0.894522       -24.3412
  24   2.0000      -0.857146       -23.3241
  25   2.0000      -0.849266       -23.1097
  26   2.0000      -0.831314       -22.6212
  27   2.0000      -0.818268       -22.2662
  28   2.0000      -0.745763       -20.2932
  29   2.0000      -0.712225       -19.3806
  30   2.0000      -0.698371       -19.0037
  31   2.0000      -0.692162       -18.8347
  32   2.0000      -0.663152       -18.0453
  33   2.0000      -0.653846       -17.7921
  34   2.0000      -0.622880       -16.9494
  35   2.0000      -0.582930       -15.8623
  36   2.0000      -0.547542       -14.8994
  37   2.0000      -0.537223       -14.6186
  38   2.0000      -0.526915       -14.3381
  39   2.0000      -0.525542       -14.3007
  40   2.0000      -0.513197       -13.9648
  41   2.0000      -0.501630       -13.6500
  42   2.0000      -0.496638       -13.5142
  43   2.0000      -0.494193       -13.4477
  44   2.0000      -0.488783       -13.3005
  45   2.0000      -0.476909       -12.9773
  46   2.0000      -0.468654       -12.7527
  47   2.0000      -0.454738       -12.3741
  48   2.0000      -0.446056       -12.1378
  49   2.0000      -0.437362       -11.9012
  50   2.0000      -0.428741       -11.6666
  51   2.0000      -0.421853       -11.4792
  52   2.0000      -0.417537       -11.3618
  53   2.0000      -0.408457       -11.1147
  54   2.0000      -0.401118       -10.9150
  55   2.0000      -0.396563       -10.7910
  56   2.0000      -0.395277       -10.7560
  57   2.0000      -0.389875       -10.6090
  58   2.0000      -0.383206       -10.4276
  59   2.0000      -0.380584       -10.3562
  60   2.0000      -0.378607       -10.3024
  61   2.0000      -0.328751        -8.9458
  62   2.0000      -0.322402        -8.7730
  63   2.0000      -0.317579        -8.6418
  64   2.0000      -0.313945        -8.5429
  65   0.0000      -0.006407        -0.1743
  66   0.0000       0.006857         0.1866
  67   0.0000       0.050020         1.3611
  68   0.0000       0.070150         1.9089
  69   0.0000       0.072423         1.9707

MULLIKEN ATOMIC CHARGES
-----------------------
   0 C :   -0.429879
   1 C :   -0.232761
   2 C :   -0.296871
   3 C :   -0.382053
   4 P :    0.619804
   5 O :   -0.609145
   6 C :   -0.386246
   7 C :   -0.294081
   8 C :   -0.256912
   9 C :   -0.432574
  10 C :   -0.127172
  11 C :   -0.129483
  12 C :   -0.139965
  13 C :   -0.133528
  14 C :   -0.153944
  15 C :   -0.169267
  16 H :    0.141971
  17 H :    0.138139
  18 H :    0.142343
  19 H :    0.128154
  20 H :    0.133795
  21 H :    0.179256
  22 H :    0.153992
  23 H :    0.169695
  24 H :    0.169501
  25 H :    0.178940
  26 H :    0.175701
  27 H :    0.169704
  28 H :    0.148115
  29 H :    0.124650
  30 H :    0.185700
  31 H :    0.138427
  32 H :    0.130305
  33 H :    0.144157
  34 H :    0.199621
  35 H :    0.151082
  36 H :    0.149002
  37 H :    0.146674
  38 H :    0.155147
Sum of atomic charges:   -0.0000000

LOEWDIN ATOMIC CHARGES
----------------------
   0 C :   -0.323817
   1 C :   -0.304900
   2 C :   -0.293906
   3 C :   -0.367179
   4 P :    0.615238
   5 O :   -0.323931
   6 C :   -0.367950
   7 C :   -0.293706
   8 C :   -0.305318
   9 C :   -0.326099
  10 C :   -0.239978
  11 C :   -0.121209
  12 C :   -0.135825
  13 C :   -0.133377
  14 C :   -0.141721
  15 C :   -0.139569
  16 H :    0.124158
  17 H :    0.122592
  18 H :    0.122043
  19 H :    0.135743
  20 H :    0.137576
  21 H :    0.151219
  22 H :    0.144421
  23 H :    0.146033
  24 H :    0.139029
  25 H :    0.147317
  26 H :    0.141516
  27 H :    0.144768
  28 H :    0.139615
  29 H :    0.136848
  30 H :    0.149407
  31 H :    0.122150
  32 H :    0.119438
  33 H :    0.122988
  34 H :    0.162518
  35 H :    0.149531
  36 H :    0.148596
  37 H :    0.148427
  38 H :    0.147315

  Mayer bond orders larger than 0.100000
B(  0-C ,  1-C ) :   0.9536 B(  0-C , 16-H ) :   0.9726 B(  0-C , 17-H ) :   0.9740
B(  0-C , 18-H ) :   0.9799 B(  1-C ,  2-C ) :   0.9260 B(  1-C , 19-H ) :   0.9744
B(  1-C , 20-H ) :   0.9744 B(  2-C ,  3-C ) :   0.9150 B(  2-C , 21-H ) :   0.9644
B(  2-C , 22-H ) :   0.9645 B(  3-C ,  4-P ) :   0.9215 B(  3-C , 23-H ) :   0.9440
B(  3-C , 24-H ) :   0.9531 B(  4-P ,  5-O ) :   1.8914 B(  4-P ,  6-C ) :   0.9085
B(  4-P , 10-C ) :   0.8973 B(  6-C ,  7-C ) :   0.9234 B(  6-C , 25-H ) :   0.9416
B(  6-C , 26-H ) :   0.9551 B(  7-C ,  8-C ) :   0.9140 B(  7-C , 27-H ) :   0.9736
B(  7-C , 28-H ) :   0.9708 B(  8-C ,  9-C ) :   0.9427 B(  8-C , 29-H ) :   0.9684
B(  8-C , 30-H ) :   0.9577 B(  9-C , 31-H ) :   0.9757 B(  9-C , 32-H ) :   0.9715
B(  9-C , 33-H ) :   0.9817 B( 10-C , 11-C ) :   1.3997 B( 10-C , 15-C ) :   1.3564
B( 11-C , 12-C ) :   1.4283 B( 11-C , 34-H ) :   0.9080 B( 12-C , 13-C ) :   1.4398
B( 12-C , 35-H ) :   0.9472 B( 13-C , 14-C ) :   1.4343 B( 13-C , 36-H ) :   0.9459
B( 14-C , 15-C ) :   1.4979 B( 14-C , 37-H ) :   0.9468 B( 15-C , 38-H ) :   0.9217

Dispersion correction           -0.002318499
FINAL SINGLE POINT ENERGY      -963.904459175289

DIPOLE MOMENT
-------------

Method             : SCF
Type of density    : Electron Density
Multiplicity       :   1
Irrep              :   0
Energy             :  -963.9021406759145520 Eh
Relativity type    :
Basis              : AO
                                X                 Y                 Z
Electronic contribution:     -3.035505194       6.488337588       1.573489601
Nuclear contribution   :      3.241804017      -5.672001482      -2.888347326
                        -----------------------------------------
Total Dipole Moment    :      0.206298823       0.816336106      -1.314857725
                        -----------------------------------------
Magnitude (a.u.)       :      1.561350274
Magnitude (Debye)      :      3.968637004

Rotational constants in cm-1:             0.017523             0.010329             0.007650
Rotational constants in MHz :           525.340458           309.640682           229.344652

                             ****ORCA TERMINATED NORMALLY****
TOTAL RUN TIME: 0 days 0 hours 1 minutes 33 seconds 899 msec
