                         Program Version 6.0.0  -   RELEASE   -
|  1> ! RIJONX B3LYP def2-SVP D3BJ TIGHTSCF Opt
|  2> %pal
|  3> nprocs 6
|  4> end
|  5>
|  6> * xyz 0 1
|  7> C     -0.149955   -2.656516   -0.337071
|  8> P     -0.102260   -1.392385    0.992856
|  9> C      1.395801   -0.420100    0.604078
| 10> C      1.471385    0.935575    0.966587
| 11> C      2.614397    1.694367    0.698376
| 12> C      3.710958    1.106049    0.076497
| 13> C      3.666833   -0.241540   -0.268321
| 14> C      2.521830   -0.999205    0.000068
| 15> C     -1.446658   -0.284485    0.449519
| 16> C     -1.458283    0.340257   -0.806277
| 17> C     -2.513730    1.176782   -1.179031
| 18> C     -3.572797    1.397872   -0.302131
| 19> C     -3.576951    0.784024    0.947882
| 20> C     -2.521041   -0.051802    1.321005
| 21> H      0.013237   -2.231677   -1.331934
| 22> H     -1.121570   -3.160917   -0.341933
| 23> H      0.610563   -3.424320   -0.165693
| 24> H      0.634887    1.421641    1.465714
| 25> H      2.645366    2.743140    0.981568
| 26> H      4.601253    1.693811   -0.129814
| 27> H      4.526720   -0.709286   -0.740798
| 28> H      2.535962   -2.052631   -0.265303
| 29> H     -0.640000    0.191026   -1.507244
| 30> H     -2.505276    1.656728   -2.154109
| 31> H     -4.393245    2.048859   -0.592043
| 32> H     -4.401318    0.954522    1.635278
| 33> H     -2.546106   -0.519787    2.303137
| 34> **                         ****END OF INPUT****
 Total Charge           Charge          ....    0
 Multiplicity           Mult            ....    1
 Number of Electrons    NEL             ....  106
Dispersion correction           -0.061734218
FINAL SINGLE POINT ENERGY      -843.784672164733
Dispersion correction             ... done (  0.1 sec)
Dispersion correction           -0.061894523
FINAL SINGLE POINT ENERGY      -843.786439829557
Dispersion correction             ... done (  0.1 sec)
Dispersion correction           -0.061850525
FINAL SINGLE POINT ENERGY      -843.786859828873
Dispersion correction             ... done (  0.1 sec)
FINAL SINGLE POINT ENERGY      -843.786973184015
FINAL SINGLE POINT ENERGY      -843.787034769229
FINAL SINGLE POINT ENERGY      -843.787080358540
FINAL SINGLE POINT ENERGY      -843.787117991883
Dispersion correction             ... done (  0.1 sec)
Dispersion correction           -0.061789267
FINAL SINGLE POINT ENERGY      -843.787126286078
Dispersion correction             ... done (  0.1 sec)
Dispersion correction           -0.061775391
FINAL SINGLE POINT ENERGY      -843.787129444575
Dispersion correction             ... done (  0.1 sec)
                    ***********************HURRAY********************

CARTESIAN COORDINATES (ANGSTROEM)
---------------------------------
  C     -0.166540   -2.697578   -0.034263
  P     -0.088397   -1.303916    1.196820
  C      1.405030   -0.376598    0.632559
  C      1.625358    0.900157    1.183472
  C      2.754514    1.643156    0.841391
  C      3.699407    1.116984   -0.047723
  C      3.500019   -0.153438   -0.590642
  C      2.360378   -0.894225   -0.255654
  C     -1.429077   -0.223766    0.508326
  C     -1.295644    0.494609   -0.692195
  C     -2.352264    1.267401   -1.177198
  C     -3.558463    1.332565   -0.469964
  C     -3.701598    0.624170    0.725586
  C     -2.640091   -0.145166    1.213326
  H     -0.085463   -2.351525   -1.076812
  H     -1.136108   -3.201202    0.096917
  H      0.628256   -3.430515    0.173996
  H      0.894981    1.318478    1.882449
  H      2.902147    2.636590    1.273252
  H      4.587545    1.696151   -0.312876
  H      4.232574   -0.573729   -1.285004
  H      2.224034   -1.881997   -0.699669
  H     -0.353861    0.453447   -1.245281
  H     -2.235411    1.823676   -2.111194
  H     -4.384057    1.940014   -0.849931
  H     -4.639297    0.675881    1.285235
  H     -2.747972   -0.689622    2.155940

 Multiplicity           Mult            ....    1
 Number of Electrons    NEL             ....  106
 Basis Dimension        Dim             ....  265

ORBITAL ENERGIES
----------------

  NO   OCC          E(Eh)            E(eV)
   0   2.0000     -77.046752     -2096.5487
   1   2.0000     -10.191433      -277.3230
   2   2.0000     -10.190966      -277.3103
   3   2.0000     -10.190599      -277.3003
   4   2.0000     -10.190227      -277.2902
   5   2.0000     -10.190209      -277.2897
   6   2.0000     -10.190119      -277.2872
   7   2.0000     -10.189882      -277.2808
   8   2.0000     -10.189579      -277.2725
   9   2.0000     -10.189552      -277.2718
  10   2.0000     -10.189193      -277.2620
  11   2.0000     -10.188832      -277.2522
  12   2.0000     -10.188481      -277.2427
  13   2.0000     -10.184583      -277.1366
  14   2.0000      -6.543308      -178.0525
  15   2.0000      -4.708826      -128.1337
  16   2.0000      -4.708601      -128.1276
  17   2.0000      -4.705721      -128.0492
  18   2.0000      -0.848359       -23.0850
  19   2.0000      -0.842688       -22.9307
  20   2.0000      -0.761249       -20.7146
  21   2.0000      -0.736877       -20.0514
  22   2.0000      -0.736267       -20.0348
  23   2.0000      -0.731500       -19.9051
  24   2.0000      -0.702335       -19.1115
  25   2.0000      -0.619915       -16.8688
  26   2.0000      -0.598657       -16.2903
  27   2.0000      -0.595588       -16.2068
  28   2.0000      -0.588689       -16.0190
  29   2.0000      -0.548738       -14.9319
  30   2.0000      -0.514040       -13.9877
  31   2.0000      -0.494504       -13.4561
  32   2.0000      -0.454125       -12.3574
  33   2.0000      -0.452224       -12.3056
  34   2.0000      -0.446675       -12.1546
  35   2.0000      -0.440106       -11.9759
  36   2.0000      -0.424563       -11.5530
  37   2.0000      -0.421741       -11.4762
  38   2.0000      -0.417660       -11.3651
  39   2.0000      -0.410899       -11.1811
  40   2.0000      -0.390693       -10.6313
  41   2.0000      -0.380073       -10.3423
  42   2.0000      -0.367948       -10.0124
  43   2.0000      -0.365360        -9.9420
  44   2.0000      -0.346038        -9.4162
  45   2.0000      -0.344615        -9.3774
  46   2.0000      -0.328737        -8.9454
  47   2.0000      -0.319090        -8.6829
  48   2.0000      -0.269102        -7.3226
  49   2.0000      -0.257896        -7.0177
  50   2.0000      -0.256141        -6.9700
  51   2.0000      -0.252360        -6.8671
  52   2.0000      -0.216909        -5.9024
  53   0.0000      -0.022276        -0.6062
  54   0.0000      -0.014567        -0.3964
  55   0.0000      -0.013700        -0.3728
  56   0.0000      -0.002565        -0.0698
  57   0.0000       0.057892         1.5753

MULLIKEN ATOMIC CHARGES
-----------------------
   0 C :   -0.136716
   1 P :    0.257410
   2 C :   -0.131158
   3 C :    0.021162
   4 C :    0.020041
   5 C :    0.020235
   6 C :    0.027037
   7 C :   -0.011291
   8 C :   -0.145915
   9 C :    0.028835
  10 C :    0.024020
  11 C :    0.024107
  12 C :    0.020043
  13 C :    0.015907
  14 H :    0.040506
  15 H :    0.045547
  16 H :    0.051407
  17 H :   -0.016235
  18 H :   -0.016384
  19 H :   -0.017052
  20 H :   -0.019762
  21 H :   -0.025975
  22 H :   -0.007031
  23 H :   -0.017483
  24 H :   -0.015171
  25 H :   -0.016022
  26 H :   -0.020062
Sum of atomic charges:   -0.0000000

LOEWDIN ATOMIC CHARGES
----------------------
   0 C :   -0.208024
   1 P :    0.493274
   2 C :   -0.174118
   3 C :   -0.027576
   4 C :   -0.023765
   5 C :   -0.027275
   6 C :   -0.024769
   7 C :   -0.042150
   8 C :   -0.173918
   9 C :   -0.023974
  10 C :   -0.025643
  11 C :   -0.021189
  12 C :   -0.026870
  13 C :   -0.032299
  14 H :    0.020958
  15 H :    0.031866
  16 H :    0.026395
  17 H :    0.025168
  18 H :    0.027327
  19 H :    0.026342
  20 H :    0.026270
  21 H :    0.022596
  22 H :    0.027399
  23 H :    0.026934
  24 H :    0.026937
  25 H :    0.027110
  26 H :    0.022993

  Mayer bond orders larger than 0.100000
B(  0-C ,  1-P ) :   1.0073 B(  0-C , 14-H ) :   0.9481 B(  0-C , 15-H ) :   0.9613
B(  0-C , 16-H ) :   0.9592 B(  1-P ,  2-C ) :   0.9169 B(  1-P ,  8-C ) :   0.9273
B(  2-C ,  3-C ) :   1.3652 B(  2-C ,  7-C ) :   1.3904 B(  3-C ,  4-C ) :   1.4232
B(  3-C , 17-H ) :   0.9805 B(  4-C ,  5-C ) :   1.3662 B(  4-C , 18-H ) :   0.9845
B(  5-C ,  6-C ) :   1.3943 B(  5-C , 19-H ) :   0.9844 B(  6-C ,  7-C ) :   1.3816
B(  6-C , 20-H ) :   0.9819 B(  7-C , 21-H ) :   0.9798 B(  8-C ,  9-C ) :   1.3737
B(  8-C , 13-C ) :   1.3918 B(  9-C , 10-C ) :   1.4024 B(  9-C , 22-H ) :   0.9773
B( 10-C , 11-C ) :   1.3707 B( 10-C , 23-H ) :   0.9837 B( 11-C , 12-C ) :   1.3914
B( 11-C , 24-H ) :   0.9844 B( 12-C , 13-C ) :   1.3819 B( 12-C , 25-H ) :   0.9852
B( 13-C , 26-H ) :   0.9848

Dispersion correction           -0.061767783
FINAL SINGLE POINT ENERGY      -843.787129933542

DIPOLE MOMENT
-------------

Method             : SCF
Type of density    : Electron Density
Multiplicity       :   1
Irrep              :   0
Energy             :  -843.7253621504247576 Eh
Relativity type    :
Basis              : AO
                                X                 Y                 Z
Electronic contribution:     -0.071145595       0.018598984       4.572243181
Nuclear contribution   :     -0.002019173       0.090368749      -5.035932110
                        -----------------------------------------
Total Dipole Moment    :     -0.073164768       0.108967733      -0.463688929
                        -----------------------------------------
Magnitude (a.u.)       :      0.481907120
Magnitude (Debye)      :      1.224910555

Rotational constants in cm-1:             0.037915             0.013225             0.011510
Rotational constants in MHz :          1136.662080           396.488361           345.072392

                             ****ORCA TERMINATED NORMALLY****
TOTAL RUN TIME: 0 days 0 hours 3 minutes 50 seconds 228 msec
