                         Program Version 6.0.0  -   RELEASE   -
|  1> ! RIJCOSX M062X def2-TZVP D3ZERO NormalSCF
|  2> %pal
|  3> nprocs 6
|  4> end
|  5>
|  6> * xyz 0 1
|  7>   C           4.35174069058687     -1.51322454390768      0.43141649741193
|  8>   C           3.09492384184834     -2.38535270607946      0.56577873432253
|  9>   C           1.95021169728808     -1.87306454858415     -0.32377296575383
| 10>   C           1.62991366719269     -0.39213574119455     -0.04066141451531
| 11>   C           2.89672437102116      0.47707308595042     -0.17214377504981
| 12>   C           4.03645765515010     -0.03811785314375      0.72020809031004
| 13>   P           0.31481639293786      0.23135427142720     -1.23248560508608
| 14>   C          -1.18683989942934     -0.82442758145405     -0.75627291109619
| 15>   C          -1.52791292697086     -0.90494253113200      0.73959469403382
| 16>   C          -2.74446829816446     -1.81184480418847      0.99494816305632
| 17>   C          -3.96341373961721     -1.36410774467294      0.17515187610887
| 18>   C          -3.62644187444922     -1.28538988864145     -1.32131068989557
| 19>   C          -2.41293486131799     -0.37674558171726     -1.57551899902682
| 20>   C          -0.16699535428617      1.85156115301672     -0.46630728035646
| 21>   C          -0.77841347763262      2.80059123016031     -1.31667914249194
| 22>   C          -1.21510026047085      4.04072068738629     -0.82349659844695
| 23>   C          -1.02661266927697      4.36435936151815      0.53033035617651
| 24>   C          -0.40370474447804      3.43870273196646      1.38478439473854
| 25>   C           0.01754788311194      2.19310958219910      0.89222412132296
| 26>   H           5.15357976496905     -1.88093530593252      1.10643005884888
| 27>   H           4.74831302885037     -1.60391027866122     -0.60540744590459
| 28>   H           3.32499879559657     -3.44327672568837      0.31708016889042
| 29>   H           2.75794583281840     -2.37988410747618      1.62747707694057
| 30>   H           1.04756901945357     -2.50205083649312     -0.17364295389896
| 31>   H           2.23303058046455     -1.98273411526853     -1.39591530481971
| 32>   H           1.26119242193767     -0.31963091311491      1.00801775770535
| 33>   H           2.66169357249360      1.53443791250330      0.07038890292568
| 34>   H           3.22506177081374      0.46850669365492     -1.23643952931195
| 35>   H           3.74226126046114      0.07177431267737      1.78905201637972
| 36>   H           4.94248388813416      0.58935114214035      0.58130529843114
| 37>   H          -0.90316926430358     -1.84370465361911     -1.10959567921901
| 38>   H          -1.74937251303123      0.11931721087984      1.11323555693292
| 39>   H          -0.65621883969259     -1.27106801922764      1.32180922377727
| 40>   H          -2.48296207061708     -2.85903466859470      0.71927592401146
| 41>   H          -2.98733971967068     -1.82659693057339      2.07906485362365
| 42>   H          -4.82044977611103     -2.04986140977305      0.34593184188053
| 43>   H          -4.29060575781970     -0.35932181913506      0.52740538076300
| 44>   H          -4.50256471801873     -0.92226517257447     -1.89976418011611
| 45>   H          -3.40177308118309     -2.30824843102207     -1.70078552775112
| 46>   H          -2.67374051365922      0.66781428649670     -1.29171005706098
| 47>   H          -2.15924162327067     -0.35321024045786     -2.65686919343088
| 48>   H          -0.90469485935692      2.55806344594719     -2.38431080570658
| 49>   H          -1.69406742620518      4.76256790062111     -1.50316396043451
| 50>   H          -1.35831745616503      5.33967639790405      0.91847094890395
| 51>   H          -0.24790113469503      3.68668268949803      2.44640253244910
| 52>   H           0.49479072476363      1.47942305638045      1.58046654942818
| 53> **                         ****END OF INPUT****

CARTESIAN COORDINATES (ANGSTROEM)
---------------------------------
  C      4.351741   -1.513225    0.431416
  C      3.094924   -2.385353    0.565779
  C      1.950212   -1.873065   -0.323773
  C      1.629914   -0.392136   -0.040661
  C      2.896724    0.477073   -0.172144
  C      4.036458   -0.038118    0.720208
  P      0.314816    0.231354   -1.232486
  C     -1.186840   -0.824428   -0.756273
  C     -1.527913   -0.904943    0.739595
  C     -2.744468   -1.811845    0.994948
  C     -3.963414   -1.364108    0.175152
  C     -3.626442   -1.285390   -1.321311
  C     -2.412935   -0.376746   -1.575519
  C     -0.166995    1.851561   -0.466307
  C     -0.778413    2.800591   -1.316679
  C     -1.215100    4.040721   -0.823497
  C     -1.026613    4.364359    0.530330
  C     -0.403705    3.438703    1.384784
  C      0.017548    2.193110    0.892224
  H      5.153580   -1.880935    1.106430
  H      4.748313   -1.603910   -0.605407
  H      3.324999   -3.443277    0.317080
  H      2.757946   -2.379884    1.627477
  H      1.047569   -2.502051   -0.173643
  H      2.233031   -1.982734   -1.395915
  H      1.261192   -0.319631    1.008018
  H      2.661694    1.534438    0.070389
  H      3.225062    0.468507   -1.236440
  H      3.742261    0.071774    1.789052
  H      4.942484    0.589351    0.581305
  H     -0.903169   -1.843705   -1.109596
  H     -1.749373    0.119317    1.113236
  H     -0.656219   -1.271068    1.321809
  H     -2.482962   -2.859035    0.719276
  H     -2.987340   -1.826597    2.079065
  H     -4.820450   -2.049861    0.345932
  H     -4.290606   -0.359322    0.527405
  H     -4.502565   -0.922265   -1.899764
  H     -3.401773   -2.308248   -1.700786
  H     -2.673741    0.667814   -1.291710
  H     -2.159242   -0.353210   -2.656869
  H     -0.904695    2.558063   -2.384311
  H     -1.694067    4.762568   -1.503164
  H     -1.358317    5.339676    0.918471
  H     -0.247901    3.686683    2.446403
  H      0.494791    1.479423    1.580467

 Total Charge           Charge          ....    0
 Multiplicity           Mult            ....    1
 Number of Electrons    NEL             ....  150
 Basis Dimension        Dim             ....  757

ORBITAL ENERGIES
----------------

  NO   OCC          E(Eh)            E(eV)
   0   2.0000     -78.013742     -2122.8618
   1   2.0000     -10.550143      -287.0840
   2   2.0000     -10.549942      -287.0785
   3   2.0000     -10.549464      -287.0655
   4   2.0000     -10.548797      -287.0474
   5   2.0000     -10.548722      -287.0453
   6   2.0000     -10.548105      -287.0285
   7   2.0000     -10.540918      -286.8330
   8   2.0000     -10.540481      -286.8211
   9   2.0000     -10.536327      -286.7080
  10   2.0000     -10.533330      -286.6265
  11   2.0000     -10.532319      -286.5990
  12   2.0000     -10.531671      -286.5813
  13   2.0000     -10.531455      -286.5755
  14   2.0000     -10.531211      -286.5688
  15   2.0000     -10.531183      -286.5681
  16   2.0000     -10.530994      -286.5629
  17   2.0000     -10.530156      -286.5401
  18   2.0000     -10.529433      -286.5204
  19   2.0000      -6.830106      -185.8566
  20   2.0000      -4.944576      -134.5488
  21   2.0000      -4.944282      -134.5408
  22   2.0000      -4.944038      -134.5341
  23   2.0000      -0.954282       -25.9673
  24   2.0000      -0.931849       -25.3569
  25   2.0000      -0.925385       -25.1810
  26   2.0000      -0.856925       -23.3181
  27   2.0000      -0.839470       -22.8431
  28   2.0000      -0.834141       -22.6981
  29   2.0000      -0.830160       -22.5898
  30   2.0000      -0.828749       -22.5514
  31   2.0000      -0.825152       -22.4535
  32   2.0000      -0.721853       -19.6426
  33   2.0000      -0.692919       -18.8553
  34   2.0000      -0.691344       -18.8124
  35   2.0000      -0.681048       -18.5323
  36   2.0000      -0.676841       -18.4178
  37   2.0000      -0.674370       -18.3505
  38   2.0000      -0.630871       -17.1669
  39   2.0000      -0.627893       -17.0858
  40   2.0000      -0.610961       -16.6251
  41   2.0000      -0.574692       -15.6382
  42   2.0000      -0.544533       -14.8175
  43   2.0000      -0.539128       -14.6704
  44   2.0000      -0.515861       -14.0373
  45   2.0000      -0.514032       -13.9875
  46   2.0000      -0.508120       -13.8267
  47   2.0000      -0.502507       -13.6739
  48   2.0000      -0.500184       -13.6107
  49   2.0000      -0.497710       -13.5434
  50   2.0000      -0.496433       -13.5086
  51   2.0000      -0.483189       -13.1482
  52   2.0000      -0.482409       -13.1270
  53   2.0000      -0.453922       -12.3518
  54   2.0000      -0.442128       -12.0309
  55   2.0000      -0.440981       -11.9997
  56   2.0000      -0.438103       -11.9214
  57   2.0000      -0.437003       -11.8914
  58   2.0000      -0.431019       -11.7286
  59   2.0000      -0.411324       -11.1927
  60   2.0000      -0.407873       -11.0988
  61   2.0000      -0.404749       -11.0138
  62   2.0000      -0.400876       -10.9084
  63   2.0000      -0.398751       -10.8506
  64   2.0000      -0.396583       -10.7916
  65   2.0000      -0.385460       -10.4889
  66   2.0000      -0.373465       -10.1625
  67   2.0000      -0.366207        -9.9650
  68   2.0000      -0.359414        -9.7801
  69   2.0000      -0.354981        -9.6595
  70   2.0000      -0.343313        -9.3420
  71   2.0000      -0.329155        -8.9568
  72   2.0000      -0.307253        -8.3608
  73   2.0000      -0.305433        -8.3113
  74   2.0000      -0.267920        -7.2905
  75   0.0000       0.005185         0.1411
  76   0.0000       0.016920         0.4604
  77   0.0000       0.053516         1.4562
  78   0.0000       0.063884         1.7384
  79   0.0000       0.067650         1.8409

MULLIKEN ATOMIC CHARGES
-----------------------
   0 C :   -0.273566
   1 C :   -0.270215
   2 C :   -0.357066
   3 C :   -0.231776
   4 C :   -0.345353
   5 C :   -0.269059
   6 P :    0.165740
   7 C :   -0.168188
   8 C :   -0.357647
   9 C :   -0.278213
  10 C :   -0.269577
  11 C :   -0.274964
  12 C :   -0.371961
  13 C :   -0.030429
  14 C :   -0.164478
  15 C :   -0.146224
  16 C :   -0.138767
  17 C :   -0.156374
  18 C :   -0.210899
  19 H :    0.142856
  20 H :    0.143102
  21 H :    0.143120
  22 H :    0.141711
  23 H :    0.158451
  24 H :    0.170140
  25 H :    0.158845
  26 H :    0.177875
  27 H :    0.166422
  28 H :    0.139794
  29 H :    0.143726
  30 H :    0.166957
  31 H :    0.178486
  32 H :    0.155611
  33 H :    0.143900
  34 H :    0.141107
  35 H :    0.140871
  36 H :    0.142079
  37 H :    0.140828
  38 H :    0.143717
  39 H :    0.175835
  40 H :    0.158793
  41 H :    0.160432
  42 H :    0.144298
  43 H :    0.144433
  44 H :    0.143810
  45 H :    0.181818
Sum of atomic charges:    0.0000000

LOEWDIN ATOMIC CHARGES
----------------------
   0 C :   -0.272718
   1 C :   -0.270430
   2 C :   -0.273425
   3 C :   -0.386885
   4 C :   -0.273104
   5 C :   -0.270813
   6 P :    0.660578
   7 C :   -0.381374
   8 C :   -0.271086
   9 C :   -0.269327
  10 C :   -0.272866
  11 C :   -0.270738
  12 C :   -0.274106
  13 C :   -0.277102
  14 C :   -0.148829
  15 C :   -0.145345
  16 C :   -0.142904
  17 C :   -0.146500
  18 C :   -0.149859
  19 H :    0.136887
  20 H :    0.140317
  21 H :    0.137764
  22 H :    0.139353
  23 H :    0.138554
  24 H :    0.144204
  25 H :    0.140594
  26 H :    0.144017
  27 H :    0.144070
  28 H :    0.138741
  29 H :    0.138098
  30 H :    0.152502
  31 H :    0.149214
  32 H :    0.137911
  33 H :    0.139107
  34 H :    0.137202
  35 H :    0.136600
  36 H :    0.140455
  37 H :    0.137478
  38 H :    0.139231
  39 H :    0.146600
  40 H :    0.140146
  41 H :    0.149002
  42 H :    0.147157
  43 H :    0.146592
  44 H :    0.146815
  45 H :    0.148221

  Mayer bond orders larger than 0.100000
B(  0-C ,  1-C ) :   0.9223 B(  0-C ,  5-C ) :   0.9206 B(  0-C , 19-H ) :   0.9830
B(  0-C , 20-H ) :   0.9800 B(  1-C ,  2-C ) :   0.9165 B(  1-C , 21-H ) :   0.9851
B(  1-C , 22-H ) :   0.9809 B(  2-C ,  3-C ) :   0.8875 B(  2-C , 23-H ) :   0.9853
B(  2-C , 24-H ) :   0.9775 B(  3-C ,  4-C ) :   0.8887 B(  3-C ,  6-P ) :   0.9740
B(  3-C , 25-H ) :   0.9500 B(  4-C ,  5-C ) :   0.9096 B(  4-C , 26-H ) :   0.9860
B(  4-C , 27-H ) :   0.9774 B(  5-C , 28-H ) :   0.9803 B(  5-C , 29-H ) :   0.9859
B(  6-P ,  7-C ) :   0.9448 B(  6-P , 13-C ) :   0.9395 B(  7-C ,  8-C ) :   0.8416
B(  7-C , 12-C ) :   0.9040 B(  7-C , 30-H ) :   0.9486 B(  8-C ,  9-C ) :   0.9270
B(  8-C , 31-H ) :   0.9610 B(  8-C , 32-H ) :   0.9853 B(  9-C , 10-C ) :   0.9241
B(  9-C , 33-H ) :   0.9864 B(  9-C , 34-H ) :   0.9844 B( 10-C , 11-C ) :   0.9215
B( 10-C , 35-H ) :   0.9817 B( 10-C , 36-H ) :   0.9783 B( 11-C , 12-C ) :   0.9231
B( 11-C , 37-H ) :   0.9831 B( 11-C , 38-H ) :   0.9840 B( 12-C , 39-H ) :   0.9785
B( 12-C , 40-H ) :   0.9788 B( 13-C , 14-C ) :   1.3898 B( 13-C , 18-C ) :   1.2682
B( 14-C , 15-C ) :   1.4594 B( 14-C , 41-H ) :   0.9389 B( 15-C , 16-C ) :   1.4415
B( 15-C , 42-H ) :   0.9468 B( 16-C , 17-C ) :   1.4416 B( 16-C , 43-H ) :   0.9477
B( 17-C , 18-C ) :   1.4878 B( 17-C , 44-H ) :   0.9409 B( 18-C , 45-H ) :   0.9387

Dispersion correction           -0.003172989
FINAL SINGLE POINT ENERGY     -1043.469210169982

DIPOLE MOMENT
-------------

Method             : SCF
Type of density    : Electron Density
Multiplicity       :   1
Irrep              :   0
Energy             : -1043.4660371811228288 Eh
Relativity type    :
Basis              : AO
                                X                 Y                 Z
Electronic contribution:     -0.764470337      13.234400117      -5.763244971
Nuclear contribution   :      0.645761303     -13.310930393       6.240598164
                        -----------------------------------------
Total Dipole Moment    :     -0.118709034      -0.076530276       0.477353194
                        -----------------------------------------
Magnitude (a.u.)       :      0.497809993
Magnitude (Debye)      :      1.265332445

Rotational constants in cm-1:             0.012849             0.009080             0.006254
Rotational constants in MHz :           385.209633           272.198575           187.485717

                             ****ORCA TERMINATED NORMALLY****
TOTAL RUN TIME: 0 days 0 hours 2 minutes 32 seconds 830 msec
