                         Program Version 6.0.0  -   RELEASE   -
|  1> ! RI BP86 def2-SVP D3BJ TIGHTSCF Opt
|  2> %pal
|  3> nprocs 6
|  4> end
|  5>
|  6> * xyz 0 1
|  7> C     -2.984481   -2.565342    2.341324
|  8> C     -3.582369   -1.376507    1.936627
|  9> C     -3.054390   -0.659794    0.858701
| 10> C     -1.906826   -1.104362    0.176727
| 11> C     -1.343104   -2.324505    0.580796
| 12> C     -1.868955   -3.042494    1.660095
| 13> P     -1.280218   -0.151172   -1.246387
| 14> C     -1.086634    1.554312   -0.613191
| 15> C     -0.883669    1.880072    0.736494
| 16> C     -0.737050    3.209933    1.142857
| 17> C     -0.789658    4.237448    0.205498
| 18> C     -0.987305    3.936425   -1.138707
| 19> C     -1.133559    2.606629   -1.543983
| 20> C      0.466984   -0.646533   -1.413530
| 21> C      1.404680   -0.542845   -0.377422
| 22> C      2.731022   -0.935995   -0.586628
| 23> C      3.152012   -1.427583   -1.822409
| 24> C      2.228139   -1.537513   -2.857266
| 25> C      0.899221   -1.150152   -2.653621
| 26> S      3.901406   -0.761709    0.728688
| 27> O      5.187603   -0.447480    0.143713
| 28> O      3.714731   -1.875896    1.628993
| 29> O      3.459333    0.587065    1.496647
| 30> H     -3.393329   -3.125406    3.178038
| 31> H     -4.463515   -1.006042    2.453939
| 32> H     -3.554063    0.259581    0.557010
| 33> H     -0.487529   -2.748297    0.060375
| 34> H     -1.407409   -3.979667    1.961425
| 35> H     -0.830714    1.105202    1.497910
| 36> H     -0.581663    3.439539    2.194018
| 37> H     -0.676860    5.270871    0.522265
| 38> H     -1.028560    4.734839   -1.875053
| 39> H     -1.285533    2.401020   -2.602101
| 40> H      1.109657   -0.170828    0.600766
| 41> H      4.186103   -1.724351   -1.983154
| 42> H      2.537687   -1.921836   -3.826451
| 43> H      0.198812   -1.245294   -3.482540
| 44> H      4.170004    1.248670    1.359537
| 45> **                         ****END OF INPUT****
 Total Charge           Charge          ....    0
 Multiplicity           Mult            ....    1
 Number of Electrons    NEL             ....  178
Dispersion correction           -0.095837411
FINAL SINGLE POINT ENERGY     -1659.370055840642
Dispersion correction             ... done (  0.1 sec)
Dispersion correction           -0.096285426
FINAL SINGLE POINT ENERGY     -1659.378900635923
Dispersion correction             ... done (  0.1 sec)
Dispersion correction           -0.096490404
FINAL SINGLE POINT ENERGY     -1659.381389972962
Dispersion correction             ... done (  0.1 sec)
FINAL SINGLE POINT ENERGY     -1659.382632871497
FINAL SINGLE POINT ENERGY     -1659.383717517752
FINAL SINGLE POINT ENERGY     -1659.384782859407
FINAL SINGLE POINT ENERGY     -1659.385770187674
FINAL SINGLE POINT ENERGY     -1659.386031070406
FINAL SINGLE POINT ENERGY     -1659.386081005032
FINAL SINGLE POINT ENERGY     -1659.386143406815
FINAL SINGLE POINT ENERGY     -1659.386160217007
FINAL SINGLE POINT ENERGY     -1659.386164257962
FINAL SINGLE POINT ENERGY     -1659.386166435283
Dispersion correction             ... done (  0.1 sec)
Dispersion correction           -0.096679822
FINAL SINGLE POINT ENERGY     -1659.386167094494
Dispersion correction             ... done (  0.1 sec)
Dispersion correction           -0.096676191
FINAL SINGLE POINT ENERGY     -1659.386167485215
Dispersion correction             ... done (  0.1 sec)
                    ***********************HURRAY********************

CARTESIAN COORDINATES (ANGSTROEM)
---------------------------------
  C     -3.332195   -2.711587    1.905992
  C     -4.092043   -1.873868    1.071166
  C     -3.454128   -1.071078    0.113342
  C     -2.046950   -1.081452   -0.009586
  C     -1.291488   -1.925384    0.832152
  C     -1.933058   -2.737481    1.781776
  P     -1.311512    0.049433   -1.277335
  C     -1.051115    1.590593   -0.287987
  C     -1.169486    1.654421    1.115869
  C     -0.921729    2.860651    1.791552
  C     -0.549011    4.010248    1.075594
  C     -0.433462    3.955232   -0.324241
  C     -0.693315    2.755306   -1.003034
  C      0.425613   -0.600490   -1.338968
  C      1.496093   -0.013078   -0.639183
  C      2.776751   -0.575240   -0.756870
  C      3.030403   -1.714554   -1.533981
  C      1.956867   -2.298309   -2.227399
  C      0.673164   -1.739385   -2.140779
  S      4.132668    0.190368    0.138173
  O      5.293398   -0.722666    0.115244
  O      3.606264    0.788231    1.369626
  O      4.501288    1.485249   -0.845025
  H     -3.832039   -3.347826    2.652375
  H     -5.189111   -1.852323    1.160603
  H     -4.051680   -0.423774   -0.548902
  H     -0.194544   -1.943372    0.749989
  H     -1.332857   -3.391064    2.433533
  H     -1.449693    0.754250    1.683081
  H     -1.012778    2.899120    2.887960
  H     -0.349271    4.952046    1.609058
  H     -0.145295    4.853892   -0.891006
  H     -0.612503    2.715079   -2.101572
  H      1.340343    0.861438    0.008913
  H      4.046630   -2.131682   -1.576299
  H      2.126525   -3.194781   -2.842865
  H     -0.160847   -2.197526   -2.696456
  H      5.204102    1.171364   -1.454512

 Multiplicity           Mult            ....    1
 Number of Electrons    NEL             ....  178
 Basis Dimension        Dim             ....  405

ORBITAL ENERGIES
----------------

  NO   OCC          E(Eh)            E(eV)
   0   2.0000     -88.319051     -2403.2836
   1   2.0000     -76.356896     -2077.7768
   2   2.0000     -18.825461      -512.2668
   3   2.0000     -18.783321      -511.1202
   4   2.0000     -18.780197      -511.0351
   5   2.0000      -9.961538      -271.0672
   6   2.0000      -9.949255      -270.7330
   7   2.0000      -9.946565      -270.6598
   8   2.0000      -9.946330      -270.6534
   9   2.0000      -9.945734      -270.6372
  10   2.0000      -9.945048      -270.6185
  11   2.0000      -9.934802      -270.3397
  12   2.0000      -9.932167      -270.2680
  13   2.0000      -9.931280      -270.2439
  14   2.0000      -9.930120      -270.2123
  15   2.0000      -9.929988      -270.2087
  16   2.0000      -9.929653      -270.1996
  17   2.0000      -9.929281      -270.1895
  18   2.0000      -9.929171      -270.1865
  19   2.0000      -9.926926      -270.1254
  20   2.0000      -9.926801      -270.1220
  21   2.0000      -9.926689      -270.1189
  22   2.0000      -9.925945      -270.0987
  23   2.0000      -7.884510      -214.5484
  24   2.0000      -6.325252      -172.1189
  25   2.0000      -5.912692      -160.8925
  26   2.0000      -5.909971      -160.8185
  27   2.0000      -5.908598      -160.7811
  28   2.0000      -4.546784      -123.7243
  29   2.0000      -4.546572      -123.7185
  30   2.0000      -4.543104      -123.6241
  31   2.0000      -1.040864       -28.3233
  32   2.0000      -0.933133       -25.3918
  33   2.0000      -0.916487       -24.9389
  34   2.0000      -0.802273       -21.8310
  35   2.0000      -0.781971       -21.2785
  36   2.0000      -0.776088       -21.1184
  37   2.0000      -0.717141       -19.5144
  38   2.0000      -0.705064       -19.1858
  39   2.0000      -0.684684       -18.6312
  40   2.0000      -0.677330       -18.4311
  41   2.0000      -0.675596       -18.3839
  42   2.0000      -0.672013       -18.2864
  43   2.0000      -0.619796       -16.8655
  44   2.0000      -0.598742       -16.2926
  45   2.0000      -0.564395       -15.3580
  46   2.0000      -0.553169       -15.0525
  47   2.0000      -0.549172       -14.9437
  48   2.0000      -0.545633       -14.8474
  49   2.0000      -0.539307       -14.6753
  50   2.0000      -0.517517       -14.0824
  51   2.0000      -0.494376       -13.4527
  52   2.0000      -0.473376       -12.8812
  53   2.0000      -0.471366       -12.8265
  54   2.0000      -0.453249       -12.3335
  55   2.0000      -0.440861       -11.9965
  56   2.0000      -0.437850       -11.9145
  57   2.0000      -0.419379       -11.4119
  58   2.0000      -0.415764       -11.3135
  59   2.0000      -0.413614       -11.2550
  60   2.0000      -0.407145       -11.0790
  61   2.0000      -0.405502       -11.0343
  62   2.0000      -0.400472       -10.8974
  63   2.0000      -0.384534       -10.4637
  64   2.0000      -0.383471       -10.4348
  65   2.0000      -0.380966       -10.3666
  66   2.0000      -0.379408       -10.3242
  67   2.0000      -0.372413       -10.1339
  68   2.0000      -0.356861        -9.7107
  69   2.0000      -0.349031        -9.4976
  70   2.0000      -0.341368        -9.2891
  71   2.0000      -0.336262        -9.1502
  72   2.0000      -0.332710        -9.0535
  73   2.0000      -0.314293        -8.5524
  74   2.0000      -0.312459        -8.5024
  75   2.0000      -0.310279        -8.4431
  76   2.0000      -0.303749        -8.2654
  77   2.0000      -0.299173        -8.1409
  78   2.0000      -0.293874        -7.9967
  79   2.0000      -0.281816        -7.6686
  80   2.0000      -0.281094        -7.6490
  81   2.0000      -0.268217        -7.2985
  82   2.0000      -0.263308        -7.1650
  83   2.0000      -0.253337        -6.8937
  84   2.0000      -0.249439        -6.7876
  85   2.0000      -0.243535        -6.6269
  86   2.0000      -0.239661        -6.5215
  87   2.0000      -0.236660        -6.4398
  88   2.0000      -0.205615        -5.5951
  89   0.0000      -0.086510        -2.3541
  90   0.0000      -0.074248        -2.0204
  91   0.0000      -0.065686        -1.7874
  92   0.0000      -0.054254        -1.4763
  93   0.0000      -0.052876        -1.4388

MULLIKEN ATOMIC CHARGES
-----------------------
   0 C :    0.004729
   1 C :    0.000113
   2 C :    0.018474
   3 C :   -0.163054
   4 C :    0.006078
   5 C :    0.004512
   6 P :    0.307770
   7 C :   -0.171991
   8 C :    0.007829
   9 C :    0.011277
  10 C :    0.008618
  11 C :    0.003605
  12 C :    0.014022
  13 C :   -0.173640
  14 C :    0.038496
  15 C :   -0.092497
  16 C :    0.010018
  17 C :   -0.003813
  18 C :    0.039901
  19 S :    0.844802
  20 O :   -0.407391
  21 O :   -0.383961
  22 O :   -0.316812
  23 H :    0.008753
  24 H :    0.008587
  25 H :    0.006737
  26 H :    0.016795
  27 H :    0.007864
  28 H :    0.018339
  29 H :    0.007739
  30 H :    0.009471
  31 H :    0.008287
  32 H :    0.004714
  33 H :    0.039833
  34 H :    0.023124
  35 H :    0.018116
  36 H :    0.015094
  37 H :    0.199466
Sum of atomic charges:   -0.0000000

LOEWDIN ATOMIC CHARGES
----------------------
   0 C :   -0.025902
   1 C :   -0.028648
   2 C :   -0.032619
   3 C :   -0.173987
   4 C :   -0.035505
   5 C :   -0.027987
   6 P :    0.504041
   7 C :   -0.177799
   8 C :   -0.032600
   9 C :   -0.024222
  10 C :   -0.022735
  11 C :   -0.027230
  12 C :   -0.035402
  13 C :   -0.162891
  14 C :   -0.023583
  15 C :   -0.186854
  16 C :   -0.027242
  17 C :   -0.021927
  18 C :   -0.016525
  19 S :    1.161986
  20 O :   -0.475112
  21 O :   -0.447191
  22 O :   -0.253045
  23 H :    0.034655
  24 H :    0.035211
  25 H :    0.032072
  26 H :    0.034936
  27 H :    0.035537
  28 H :    0.036354
  29 H :    0.035849
  30 H :    0.035231
  31 H :    0.035308
  32 H :    0.030984
  33 H :    0.044600
  34 H :    0.040767
  35 H :    0.040142
  36 H :    0.036881
  37 H :    0.084450

  Mayer bond orders larger than 0.100000
B(  0-C ,  1-C ) :   1.3761 B(  0-C ,  5-C ) :   1.3786 B(  0-C , 23-H ) :   0.9759
B(  1-C ,  2-C ) :   1.4022 B(  1-C , 24-H ) :   0.9759 B(  2-C ,  3-C ) :   1.3648
B(  2-C , 25-H ) :   0.9717 B(  3-C ,  4-C ) :   1.3750 B(  3-C ,  6-P ) :   0.9435
B(  4-C ,  5-C ) :   1.3855 B(  4-C , 26-H ) :   0.9676 B(  5-C , 27-H ) :   0.9750
B(  6-P ,  7-C ) :   0.9398 B(  6-P , 13-C ) :   0.9231 B(  7-C ,  8-C ) :   1.3802
B(  7-C , 12-C ) :   1.3596 B(  8-C ,  9-C ) :   1.3850 B(  8-C , 28-H ) :   0.9674
B(  9-C , 10-C ) :   1.3801 B(  9-C , 29-H ) :   0.9744 B( 10-C , 11-C ) :   1.3766
B( 10-C , 30-H ) :   0.9754 B( 11-C , 12-C ) :   1.4033 B( 11-C , 31-H ) :   0.9757
B( 12-C , 32-H ) :   0.9718 B( 13-C , 14-C ) :   1.3800 B( 13-C , 18-C ) :   1.3559
B( 14-C , 15-C ) :   1.3387 B( 14-C , 33-H ) :   0.9654 B( 15-C , 16-C ) :   1.3878
B( 15-C , 19-S ) :   0.8195 B( 16-C , 17-C ) :   1.3506 B( 16-C , 34-H ) :   0.9712
B( 17-C , 18-C ) :   1.4040 B( 17-C , 35-H ) :   0.9750 B( 18-C , 36-H ) :   0.9722
B( 19-S , 20-O ) :   1.6952 B( 19-S , 21-O ) :   1.7492 B( 19-S , 22-O ) :   0.9205
B( 20-O , 21-O ) :   0.1032 B( 22-O , 37-H ) :   0.9394

Dispersion correction           -0.096675323
FINAL SINGLE POINT ENERGY     -1659.386167596906

DIPOLE MOMENT
-------------

Method             : SCF
Type of density    : Electron Density
Multiplicity       :   1
Irrep              :   0
Energy             : -1659.2894922737500565 Eh
Relativity type    :
Basis              : AO
                                X                 Y                 Z
Electronic contribution:      9.938534856       0.457613605      -4.145888858
Nuclear contribution   :    -10.690534641      -0.823172314       3.338109203
                        -----------------------------------------
Total Dipole Moment    :     -0.751999786      -0.365558709      -0.807779656
                        -----------------------------------------
Magnitude (a.u.)       :      1.162602606
Magnitude (Debye)      :      2.955100979

Rotational constants in cm-1:             0.010046             0.005521             0.004394
Rotational constants in MHz :           301.180734           165.519648           131.726539

                             ****ORCA TERMINATED NORMALLY****
TOTAL RUN TIME: 0 days 0 hours 5 minutes 3 seconds 925 msec
