                         Program Version 6.0.0  -   RELEASE   -
|  1> ! RIJCOSX M062X def2-TZVP D3ZERO NormalSCF
|  2> %pal
|  3> nprocs 6
|  4> end
|  5>
|  6> * xyz 0 1
|  7>   C          -2.89952554105948     -3.44872326182547      0.18911972983529
|  8>   C          -1.71830447303613     -3.04669621777973      0.83492082453040
|  9>   C          -0.95389578419993     -1.98753475112919      0.31827111976110
| 10>   C          -1.36184835560711     -1.32304414138882     -0.85785619186694
| 11>   C          -2.54350054118998     -1.74237308262927     -1.50827516797121
| 12>   C          -3.31255698349991     -2.79192038582411     -0.98306218973473
| 13>   P          -0.45013450197188      0.10073583668398     -1.61259808142869
| 14>   C          -1.27029988346765      1.53707465335148     -0.78169130055705
| 15>   C          -2.14345841616520      1.41531463209622      0.31946723026627
| 16>   C          -2.71577585730205      2.55970662691006      0.89896793255123
| 17>   C          -2.41908599921889      3.83556676263875      0.39095444274326
| 18>   C          -1.55226093378699      3.96496514474314     -0.70811877166320
| 19>   C          -0.99026467839390      2.82217692360171     -1.29740017916622
| 20>   C           1.14874923792497      0.01585332594658     -0.68351758080138
| 21>   C           2.08508671703447     -0.95818624561271     -1.10259886467710
| 22>   C           3.31901876356987     -1.08938126666102     -0.45670598657164
| 23>   C           3.64910514563993     -0.22926338841507      0.61356067621069
| 24>   C           2.72610660886876      0.75332607858026      1.02518846056731
| 25>   C           1.48628911822437      0.87423329962240      0.38537255924144
| 26>   C           4.95065577974800     -0.31624631763762      1.33604120799389
| 27>   O           5.28382517879664      0.40153376217703      2.26570293568891
| 28>   O           5.75911919758348     -1.30035020588847      0.85126156138634
| 29>   H          -3.49713176611394     -4.27829908354585      0.59704326080122
| 30>   H          -1.38952721453210     -3.55829204433668      1.75281211636761
| 31>   H          -0.03519083192836     -1.67094676605955      0.83431457007817
| 32>   H          -2.86102839919070     -1.23599514539141     -2.43416026306268
| 33>   H          -4.23428241456681     -3.10566374788689     -1.49691850319051
| 34>   H          -2.37306038513408      0.41948591628495      0.72710673577889
| 35>   H          -3.39662210972676      2.45270882073857      1.75768086946300
| 36>   H          -2.86769640633485      4.73060136923705      0.84853868238936
| 37>   H          -1.32008962017810      4.96124700082006     -1.11499752260153
| 38>   H          -0.32169039905370      2.92384550762591     -2.16776445416706
| 39>   H           1.83564392252008     -1.62415869071217     -1.94435096419857
| 40>   H           4.04068040480224     -1.85244891033025     -0.77972518423740
| 41>   H           3.00258644541537      1.41190124451143      1.86191663452862
| 42>   H           0.76827492281274      1.63655486658578      0.72160401247157
| 43>   H           6.57209105271762     -1.25730811910107      1.39989664324130
| 44> **                         ****END OF INPUT****

CARTESIAN COORDINATES (ANGSTROEM)
---------------------------------
  C     -2.899526   -3.448723    0.189120
  C     -1.718304   -3.046696    0.834921
  C     -0.953896   -1.987535    0.318271
  C     -1.361848   -1.323044   -0.857856
  C     -2.543501   -1.742373   -1.508275
  C     -3.312557   -2.791920   -0.983062
  P     -0.450135    0.100736   -1.612598
  C     -1.270300    1.537075   -0.781691
  C     -2.143458    1.415315    0.319467
  C     -2.715776    2.559707    0.898968
  C     -2.419086    3.835567    0.390954
  C     -1.552261    3.964965   -0.708119
  C     -0.990265    2.822177   -1.297400
  C      1.148749    0.015853   -0.683518
  C      2.085087   -0.958186   -1.102599
  C      3.319019   -1.089381   -0.456706
  C      3.649105   -0.229263    0.613561
  C      2.726107    0.753326    1.025188
  C      1.486289    0.874233    0.385373
  C      4.950656   -0.316246    1.336041
  O      5.283825    0.401534    2.265703
  O      5.759119   -1.300350    0.851262
  H     -3.497132   -4.278299    0.597043
  H     -1.389527   -3.558292    1.752812
  H     -0.035191   -1.670947    0.834315
  H     -2.861028   -1.235995   -2.434160
  H     -4.234282   -3.105664   -1.496919
  H     -2.373060    0.419486    0.727107
  H     -3.396622    2.452709    1.757681
  H     -2.867696    4.730601    0.848539
  H     -1.320090    4.961247   -1.114998
  H     -0.321690    2.923846   -2.167764
  H      1.835644   -1.624159   -1.944351
  H      4.040680   -1.852449   -0.779725
  H      3.002586    1.411901    1.861917
  H      0.768275    1.636555    0.721604
  H      6.572091   -1.257308    1.399897

 Total Charge           Charge          ....    0
 Multiplicity           Mult            ....    1
 Number of Electrons    NEL             ....  160
 Basis Dimension        Dim             ....  778

ORBITAL ENERGIES
----------------

  NO   OCC          E(Eh)            E(eV)
   0   2.0000     -78.039409     -2123.5603
   1   2.0000     -19.679856      -535.5161
   2   2.0000     -19.623096      -533.9716
   3   2.0000     -10.686691      -290.7996
   4   2.0000     -10.570801      -287.6461
   5   2.0000     -10.569340      -287.6064
   6   2.0000     -10.565814      -287.5104
   7   2.0000     -10.562942      -287.4323
   8   2.0000     -10.562228      -287.4128
   9   2.0000     -10.561738      -287.3995
  10   2.0000     -10.560608      -287.3688
  11   2.0000     -10.559712      -287.3444
  12   2.0000     -10.558144      -287.3017
  13   2.0000     -10.557665      -287.2887
  14   2.0000     -10.557390      -287.2812
  15   2.0000     -10.556878      -287.2673
  16   2.0000     -10.556786      -287.2648
  17   2.0000     -10.556252      -287.2502
  18   2.0000     -10.555903      -287.2407
  19   2.0000     -10.555780      -287.2374
  20   2.0000     -10.555694      -287.2350
  21   2.0000     -10.555020      -287.2167
  22   2.0000      -6.855540      -186.5487
  23   2.0000      -4.970170      -135.2452
  24   2.0000      -4.969751      -135.2338
  25   2.0000      -4.969729      -135.2332
  26   2.0000      -1.234392       -33.5895
  27   2.0000      -1.138838       -30.9894
  28   2.0000      -0.973753       -26.4972
  29   2.0000      -0.963499       -26.2181
  30   2.0000      -0.959216       -26.1016
  31   2.0000      -0.882697       -24.0194
  32   2.0000      -0.855741       -23.2859
  33   2.0000      -0.853713       -23.2307
  34   2.0000      -0.846829       -23.0434
  35   2.0000      -0.846227       -23.0270
  36   2.0000      -0.840479       -22.8706
  37   2.0000      -0.764733       -20.8095
  38   2.0000      -0.722458       -19.6591
  39   2.0000      -0.703422       -19.1411
  40   2.0000      -0.692901       -18.8548
  41   2.0000      -0.691651       -18.8208
  42   2.0000      -0.680820       -18.5260
  43   2.0000      -0.668889       -18.2014
  44   2.0000      -0.639849       -17.4112
  45   2.0000      -0.608484       -16.5577
  46   2.0000      -0.594659       -16.1815
  47   2.0000      -0.585682       -15.9372
  48   2.0000      -0.578664       -15.7462
  49   2.0000      -0.539213       -14.6727
  50   2.0000      -0.538152       -14.6439
  51   2.0000      -0.532428       -14.4881
  52   2.0000      -0.528779       -14.3888
  53   2.0000      -0.523453       -14.2439
  54   2.0000      -0.520043       -14.1511
  55   2.0000      -0.517834       -14.0910
  56   2.0000      -0.510662       -13.8958
  57   2.0000      -0.497602       -13.5404
  58   2.0000      -0.492991       -13.4150
  59   2.0000      -0.491923       -13.3859
  60   2.0000      -0.477975       -13.0064
  61   2.0000      -0.475793       -12.9470
  62   2.0000      -0.450998       -12.2723
  63   2.0000      -0.443703       -12.0738
  64   2.0000      -0.442610       -12.0440
  65   2.0000      -0.436539       -11.8788
  66   2.0000      -0.412368       -11.2211
  67   2.0000      -0.410295       -11.1647
  68   2.0000      -0.408854       -11.1255
  69   2.0000      -0.403580       -10.9820
  70   2.0000      -0.389929       -10.6105
  71   2.0000      -0.381877       -10.3914
  72   2.0000      -0.364607        -9.9215
  73   2.0000      -0.343368        -9.3435
  74   2.0000      -0.324390        -8.8271
  75   2.0000      -0.321965        -8.7611
  76   2.0000      -0.319427        -8.6921
  77   2.0000      -0.313821        -8.5395
  78   2.0000      -0.311655        -8.4806
  79   2.0000      -0.274239        -7.4624
  80   0.0000      -0.036256        -0.9866
  81   0.0000      -0.008401        -0.2286
  82   0.0000      -0.006508        -0.1771
  83   0.0000       0.005302         0.1443
  84   0.0000       0.015481         0.4213

MULLIKEN ATOMIC CHARGES
-----------------------
   0 C :   -0.135407
   1 C :   -0.154830
   2 C :   -0.145699
   3 C :   -0.099729
   4 C :   -0.135811
   5 C :   -0.148644
   6 P :    0.133875
   7 C :   -0.099146
   8 C :   -0.127995
   9 C :   -0.159565
  10 C :   -0.134332
  11 C :   -0.142291
  12 C :   -0.151428
  13 C :   -0.087014
  14 C :   -0.151373
  15 C :   -0.168946
  16 C :   -0.001163
  17 C :   -0.192679
  18 C :   -0.102787
  19 C :    0.353172
  20 O :   -0.347156
  21 O :   -0.421248
  22 H :    0.148415
  23 H :    0.149282
  24 H :    0.183666
  25 H :    0.156655
  26 H :    0.147992
  27 H :    0.185169
  28 H :    0.147973
  29 H :    0.147867
  30 H :    0.148299
  31 H :    0.157894
  32 H :    0.160456
  33 H :    0.174832
  34 H :    0.181878
  35 H :    0.186857
  36 H :    0.342962
Sum of atomic charges:   -0.0000000

LOEWDIN ATOMIC CHARGES
----------------------
   0 C :   -0.138612
   1 C :   -0.141276
   2 C :   -0.137815
   3 C :   -0.277439
   4 C :   -0.140893
   5 C :   -0.141506
   6 P :    0.705502
   7 C :   -0.278690
   8 C :   -0.134526
   9 C :   -0.140451
  10 C :   -0.138395
  11 C :   -0.142248
  12 C :   -0.143947
  13 C :   -0.261152
  14 C :   -0.136391
  15 C :   -0.089350
  16 C :   -0.129045
  17 C :   -0.075103
  18 C :   -0.130305
  19 C :   -0.434177
  20 O :    0.077837
  21 O :    0.073902
  22 H :    0.147949
  23 H :    0.148867
  24 H :    0.157534
  25 H :    0.150987
  26 H :    0.148633
  27 H :    0.158143
  28 H :    0.148684
  29 H :    0.147958
  30 H :    0.148690
  31 H :    0.151036
  32 H :    0.153957
  33 H :    0.158819
  34 H :    0.163304
  35 H :    0.160461
  36 H :    0.209056

  Mayer bond orders larger than 0.100000
B(  0-C ,  1-C ) :   1.4366 B(  0-C ,  5-C ) :   1.4298 B(  0-C , 22-H ) :   0.9457
B(  1-C ,  2-C ) :   1.4623 B(  1-C , 23-H ) :   0.9427 B(  2-C ,  3-C ) :   1.3208
B(  2-C , 24-H ) :   0.9307 B(  3-C ,  4-C ) :   1.4084 B(  3-C ,  6-P ) :   0.9371
B(  4-C ,  5-C ) :   1.4608 B(  4-C , 25-H ) :   0.9327 B(  5-C , 26-H ) :   0.9468
B(  6-P ,  7-C ) :   0.9311 B(  6-P , 13-C ) :   0.9366 B(  7-C ,  8-C ) :   1.3440
B(  7-C , 12-C ) :   1.3912 B(  8-C ,  9-C ) :   1.4649 B(  8-C , 27-H ) :   0.9233
B(  9-C , 10-C ) :   1.4364 B(  9-C , 28-H ) :   0.9430 B( 10-C , 11-C ) :   1.4283
B( 10-C , 29-H ) :   0.9465 B( 11-C , 12-C ) :   1.4583 B( 11-C , 30-H ) :   0.9468
B( 12-C , 31-H ) :   0.9356 B( 13-C , 14-C ) :   1.3729 B( 13-C , 18-C ) :   1.3305
B( 14-C , 15-C ) :   1.4703 B( 14-C , 32-H ) :   0.9405 B( 15-C , 16-C ) :   1.3824
B( 15-C , 33-H ) :   0.9235 B( 16-C , 17-C ) :   1.4217 B( 16-C , 19-C ) :   1.0034
B( 17-C , 18-C ) :   1.4666 B( 17-C , 34-H ) :   0.9154 B( 18-C , 35-H ) :   0.9282
B( 19-C , 20-O ) :   2.0369 B( 19-C , 21-O ) :   1.1940 B( 21-O , 36-H ) :   0.8562

Dispersion correction           -0.002321095
FINAL SINGLE POINT ENERGY     -1224.836087625923

DIPOLE MOMENT
-------------

Method             : SCF
Type of density    : Electron Density
Multiplicity       :   1
Irrep              :   0
Energy             : -1224.8337665314033984 Eh
Relativity type    :
Basis              : AO
                                X                 Y                 Z
Electronic contribution:      8.874622236      -0.260138902      -3.118388303
Nuclear contribution   :     -9.550327826      -0.097168544       3.064924602
                        -----------------------------------------
Total Dipole Moment    :     -0.675705590      -0.357307446      -0.053463701
                        -----------------------------------------
Magnitude (a.u.)       :      0.766227787
Magnitude (Debye)      :      1.947596257

Rotational constants in cm-1:             0.011204             0.005822             0.004378
Rotational constants in MHz :           335.889925           174.531766           131.257430

                             ****ORCA TERMINATED NORMALLY****
TOTAL RUN TIME: 0 days 0 hours 2 minutes 28 seconds 60 msec
