                         Program Version 6.0.0  -   RELEASE   -
|  1> ! RI BP86 def2-SVP D3BJ TIGHTSCF Opt
|  2> %pal
|  3> nprocs 6
|  4> end
|  5>
|  6> * xyz 0 1
|  7> C     -1.097755    2.233928    1.313123
|  8> C     -0.722052    0.781988    1.583652
|  9> P     -0.127885   -0.086602    0.126521
| 10> O     -0.232343    0.715583   -1.140652
| 11> C      1.559609   -0.569527    0.501875
| 12> C      2.335004   -1.024469   -0.726750
| 13> C      3.709154   -1.504817   -0.361322
| 14> O      4.123577   -1.771288    0.753695
| 15> O      4.494313   -1.666421   -1.443034
| 16> C     -1.041173   -1.636127    0.026017
| 17> C     -2.077111   -1.666688   -1.091579
| 18> C     -3.152212   -0.639291   -0.882734
| 19> O     -3.394483   -0.036985    0.149578
| 20> O     -3.906124   -0.460672   -1.982778
| 21> C      0.102941    3.041084    0.907704
| 22> O      1.273877    2.738450    1.067122
| 23> O     -0.236982    4.225581    0.365876
| 24> H     -1.523146    2.684651    2.215414
| 25> H     -1.838176    2.278556    0.507988
| 26> H     -1.599140    0.265024    1.985022
| 27> H      0.043292    0.732868    2.366631
| 28> H      1.536116   -1.362425    1.258520
| 29> H      2.084885    0.275256    0.959697
| 30> H      2.427343   -0.186505   -1.425971
| 31> H      1.805796   -1.839276   -1.230484
| 32> H      5.349220   -1.976263   -1.077501
| 33> H     -0.329168   -2.448656   -0.155403
| 34> H     -1.512362   -1.847428    0.992026
| 35> H     -1.585108   -1.468660   -2.049723
| 36> H     -2.550283   -2.653091   -1.132698
| 37> H     -4.539712    0.244638   -1.735862
| 38> H      0.620087    4.627584    0.114176
| 39> **                         ****END OF INPUT****
 Total Charge           Charge          ....    0
 Multiplicity           Mult            ....    1
 Number of Electrons    NEL             ....  140
Dispersion correction           -0.061363759
FINAL SINGLE POINT ENERGY     -1219.366371068612
Dispersion correction             ... done (  0.1 sec)
Dispersion correction           -0.061212353
FINAL SINGLE POINT ENERGY     -1219.373456467518
Dispersion correction             ... done (  0.1 sec)
Dispersion correction           -0.060723196
FINAL SINGLE POINT ENERGY     -1219.375166573325
Dispersion correction             ... done (  0.1 sec)
FINAL SINGLE POINT ENERGY     -1219.375731353897
FINAL SINGLE POINT ENERGY     -1219.376052023757
FINAL SINGLE POINT ENERGY     -1219.376053085595
FINAL SINGLE POINT ENERGY     -1219.376140444864
FINAL SINGLE POINT ENERGY     -1219.376165749045
FINAL SINGLE POINT ENERGY     -1219.376186095510
FINAL SINGLE POINT ENERGY     -1219.376208137482
FINAL SINGLE POINT ENERGY     -1219.376288593679
FINAL SINGLE POINT ENERGY     -1219.376294469310
FINAL SINGLE POINT ENERGY     -1219.376300692378
FINAL SINGLE POINT ENERGY     -1219.376303164476
FINAL SINGLE POINT ENERGY     -1219.376287081669
FINAL SINGLE POINT ENERGY     -1219.376305446304
FINAL SINGLE POINT ENERGY     -1219.376306096842
Dispersion correction             ... done (  0.1 sec)
Dispersion correction           -0.060903149
FINAL SINGLE POINT ENERGY     -1219.376305079989
Dispersion correction             ... done (  0.1 sec)
Dispersion correction           -0.060905158
FINAL SINGLE POINT ENERGY     -1219.376306463277
Dispersion correction             ... done (  0.1 sec)
                    ***********************HURRAY********************

CARTESIAN COORDINATES (ANGSTROEM)
---------------------------------
  C     -1.056606    2.238589    1.286083
  C     -0.804344    0.779381    1.666033
  P     -0.162226   -0.138119    0.184963
  O     -0.264940    0.664267   -1.110988
  C      1.561769   -0.621908    0.599684
  C      2.303162   -1.096764   -0.646750
  C      3.790329   -1.275885   -0.415297
  O      4.398486   -0.971747    0.593239
  O      4.396151   -1.826179   -1.502594
  C     -1.114011   -1.737045    0.051203
  C     -2.090613   -1.661327   -1.123287
  C     -3.170222   -0.619384   -0.920225
  O     -3.362319    0.014237    0.105484
  O     -3.939208   -0.470267   -2.023321
  C      0.217989    2.977291    0.934289
  O      1.351184    2.574587    1.141113
  O     -0.034900    4.187519    0.382060
  H     -1.543942    2.785254    2.122838
  H     -1.749534    2.303817    0.424438
  H     -1.755659    0.308221    1.973184
  H     -0.067302    0.698418    2.490501
  H      1.560521   -1.384466    1.407341
  H      2.039326    0.293456    1.003022
  H      2.163267   -0.356132   -1.464703
  H      1.901344   -2.050324   -1.052432
  H      5.349056   -1.883251   -1.269805
  H     -0.389093   -2.558920   -0.118995
  H     -1.636854   -1.944918    1.006787
  H     -1.554992   -1.394677   -2.057356
  H     -2.586635   -2.639004   -1.306715
  H     -4.595784    0.225202   -1.797904
  H      0.846599    4.580078    0.196257

 Multiplicity           Mult            ....    1
 Number of Electrons    NEL             ....  140
 Basis Dimension        Dim             ....  317

ORBITAL ENERGIES
----------------

  NO   OCC          E(Eh)            E(eV)
   0   2.0000     -76.408169     -2079.1720
   1   2.0000     -18.831954      -512.4435
   2   2.0000     -18.824248      -512.2338
   3   2.0000     -18.822195      -512.1780
   4   2.0000     -18.777388      -510.9587
   5   2.0000     -18.767442      -510.6881
   6   2.0000     -18.766604      -510.6653
   7   2.0000     -18.717075      -509.3175
   8   2.0000     -10.043909      -273.3087
   9   2.0000     -10.034533      -273.0535
  10   2.0000     -10.033431      -273.0235
  11   2.0000      -9.940814      -270.5033
  12   2.0000      -9.934353      -270.3275
  13   2.0000      -9.933238      -270.2971
  14   2.0000      -9.930701      -270.2281
  15   2.0000      -9.922924      -270.0165
  16   2.0000      -9.919723      -269.9294
  17   2.0000      -6.367834      -173.2776
  18   2.0000      -4.589169      -124.8776
  19   2.0000      -4.588898      -124.8703
  20   2.0000      -4.588692      -124.8647
  21   2.0000      -1.011586       -27.5267
  22   2.0000      -1.002017       -27.2663
  23   2.0000      -1.001343       -27.2479
  24   2.0000      -0.923084       -25.1184
  25   2.0000      -0.914418       -24.8826
  26   2.0000      -0.912724       -24.8365
  27   2.0000      -0.848528       -23.0896
  28   2.0000      -0.727193       -19.7879
  29   2.0000      -0.716939       -19.5089
  30   2.0000      -0.712879       -19.3984
  31   2.0000      -0.643819       -17.5192
  32   2.0000      -0.611600       -16.6425
  33   2.0000      -0.604507       -16.4495
  34   2.0000      -0.546817       -14.8797
  35   2.0000      -0.529245       -14.4015
  36   2.0000      -0.521219       -14.1831
  37   2.0000      -0.474312       -12.9067
  38   2.0000      -0.457411       -12.4468
  39   2.0000      -0.450358       -12.2549
  40   2.0000      -0.442823       -12.0498
  41   2.0000      -0.439635       -11.9631
  42   2.0000      -0.433864       -11.8060
  43   2.0000      -0.426909       -11.6168
  44   2.0000      -0.421403       -11.4670
  45   2.0000      -0.419447       -11.4137
  46   2.0000      -0.416626       -11.3370
  47   2.0000      -0.386380       -10.5139
  48   2.0000      -0.383739       -10.4421
  49   2.0000      -0.379516       -10.3272
  50   2.0000      -0.368050       -10.0152
  51   2.0000      -0.365599        -9.9485
  52   2.0000      -0.354074        -9.6348
  53   2.0000      -0.346977        -9.4417
  54   2.0000      -0.343596        -9.3497
  55   2.0000      -0.339158        -9.2290
  56   2.0000      -0.332993        -9.0612
  57   2.0000      -0.325520        -8.8578
  58   2.0000      -0.320587        -8.7236
  59   2.0000      -0.304294        -8.2803
  60   2.0000      -0.298374        -8.1192
  61   2.0000      -0.294680        -8.0186
  62   2.0000      -0.285934        -7.7807
  63   2.0000      -0.278347        -7.5742
  64   2.0000      -0.275917        -7.5081
  65   2.0000      -0.241863        -6.5814
  66   2.0000      -0.232529        -6.3274
  67   2.0000      -0.231241        -6.2924
  68   2.0000      -0.217142        -5.9087
  69   2.0000      -0.215904        -5.8750
  70   0.0000      -0.039480        -1.0743
  71   0.0000      -0.030915        -0.8413
  72   0.0000      -0.028110        -0.7649
  73   0.0000       0.011206         0.3049
  74   0.0000       0.030218         0.8223

MULLIKEN ATOMIC CHARGES
-----------------------
   0 C :   -0.023049
   1 C :   -0.105447
   2 P :    0.438041
   3 O :   -0.482994
   4 C :   -0.144037
   5 C :   -0.029705
   6 C :    0.080375
   7 O :   -0.191553
   8 O :   -0.163199
   9 C :   -0.133135
  10 C :   -0.023267
  11 C :    0.086773
  12 O :   -0.212049
  13 O :   -0.149970
  14 C :    0.085711
  15 O :   -0.208776
  16 O :   -0.153382
  17 H :    0.061645
  18 H :    0.075871
  19 H :    0.063346
  20 H :    0.057395
  21 H :    0.050095
  22 H :    0.092802
  23 H :    0.082033
  24 H :    0.047262
  25 H :    0.181912
  26 H :    0.047699
  27 H :    0.058676
  28 H :    0.079814
  29 H :    0.062383
  30 H :    0.185436
  31 H :    0.183291
Sum of atomic charges:   -0.0000000

LOEWDIN ATOMIC CHARGES
----------------------
   0 C :   -0.073192
   1 C :   -0.186980
   2 P :    0.886253
   3 O :   -0.510361
   4 C :   -0.189541
   5 C :   -0.083545
   6 C :    0.061764
   7 O :   -0.166202
   8 O :   -0.039059
   9 C :   -0.191296
  10 C :   -0.077732
  11 C :    0.067265
  12 O :   -0.178587
  13 O :   -0.024063
  14 C :    0.065041
  15 O :   -0.177625
  16 O :   -0.027095
  17 H :    0.054236
  18 H :    0.053278
  19 H :    0.038599
  20 H :    0.036558
  21 H :    0.034559
  22 H :    0.047543
  23 H :    0.059808
  24 H :    0.042757
  25 H :    0.096732
  26 H :    0.035797
  27 H :    0.037063
  28 H :    0.056304
  29 H :    0.052490
  30 H :    0.100415
  31 H :    0.098814

  Mayer bond orders larger than 0.100000
B(  0-C ,  1-C ) :   1.0749 B(  0-C , 14-C ) :   0.9691 B(  0-C , 17-H ) :   0.9086
B(  0-C , 18-H ) :   0.9142 B(  1-C ,  2-P ) :   0.9081 B(  1-C , 19-H ) :   0.9105
B(  1-C , 20-H ) :   0.9199 B(  2-P ,  3-O ) :   1.8133 B(  2-P ,  4-C ) :   0.9404
B(  2-P ,  9-C ) :   0.8945 B(  4-C ,  5-C ) :   1.0536 B(  4-C , 21-H ) :   0.9153
B(  4-C , 22-H ) :   0.9036 B(  5-C ,  6-C ) :   0.9674 B(  5-C , 23-H ) :   0.9005
B(  5-C , 24-H ) :   0.9187 B(  6-C ,  7-O ) :   2.1020 B(  6-C ,  8-O ) :   1.2434
B(  8-O , 25-H ) :   0.9406 B(  9-C , 10-C ) :   1.0699 B(  9-C , 26-H ) :   0.9250
B(  9-C , 27-H ) :   0.9202 B( 10-C , 11-C ) :   0.9719 B( 10-C , 28-H ) :   0.9106
B( 10-C , 29-H ) :   0.9106 B( 11-C , 12-O ) :   2.0377 B( 11-C , 13-O ) :   1.2600
B( 13-O , 30-H ) :   0.9396 B( 14-C , 15-O ) :   2.0371 B( 14-C , 16-O ) :   1.2541
B( 16-O , 31-H ) :   0.9407

Dispersion correction           -0.060907750
FINAL SINGLE POINT ENERGY     -1219.376306582064

DIPOLE MOMENT
-------------

Method             : SCF
Type of density    : Electron Density
Multiplicity       :   1
Irrep              :   0
Energy             : -1219.3153988318817937 Eh
Relativity type    :
Basis              : AO
                                X                 Y                 Z
Electronic contribution:      2.489575233       4.303393489      -1.962616978
Nuclear contribution   :     -3.173984543      -5.001831144       1.964998518
                        -----------------------------------------
Total Dipole Moment    :     -0.684409310      -0.698437655       0.002381540
                        -----------------------------------------
Magnitude (a.u.)       :      0.977873679
Magnitude (Debye)      :      2.485557363

Rotational constants in cm-1:             0.015936             0.009163             0.006575
Rotational constants in MHz :           477.750407           274.687147           197.116186

                             ****ORCA TERMINATED NORMALLY****
TOTAL RUN TIME: 0 days 0 hours 4 minutes 47 seconds 400 msec
