                         Program Version 6.0.0  -   RELEASE   -
|  1> ! RIJONX B3LYP def2-SVP D3BJ TIGHTSCF Opt
|  2> %pal
|  3> nprocs 6
|  4> end
|  5>
|  6> * xyz 0 1
|  7> C      4.126202   -0.857016   -0.367542
|  8> C      2.793394   -0.367339   -0.914098
|  9> C      1.626420   -1.148142   -0.310123
| 10> P     -0.005576   -0.618089   -1.003922
| 11> C     -1.126551   -1.670276    0.026631
| 12> C     -2.602830   -1.390797   -0.254012
| 13> C     -3.502469   -2.303884    0.565626
| 14> C     -0.228930    1.032516   -0.270599
| 15> C     -0.536256    2.101792   -1.125069
| 16> C     -0.719604    3.392669   -0.622461
| 17> C     -0.598013    3.632456    0.743312
| 18> C     -0.293381    2.582099    1.605104
| 19> C     -0.110128    1.290954    1.101295
| 20> H      4.949443   -0.288010   -0.810782
| 21> H      4.280932   -1.915394   -0.600370
| 22> H      4.173751   -0.732729    0.719039
| 23> H      2.797724   -0.471413   -2.006180
| 24> H      2.696260    0.702983   -0.696522
| 25> H      1.635600   -1.055302    0.781070
| 26> H      1.752287   -2.213657   -0.536301
| 27> H     -0.914331   -1.538927    1.092988
| 28> H     -0.908283   -2.718266   -0.210849
| 29> H     -2.823402   -1.537528   -1.318583
| 30> H     -2.850783   -0.349080   -0.017987
| 31> H     -3.337325   -2.157292    1.637822
| 32> H     -3.314390   -3.355937    0.328720
| 33> H     -4.554470   -2.090541    0.351772
| 34> H     -0.636521    1.939362   -2.196550
| 35> H     -0.957196    4.208294   -1.300136
| 36> H     -0.740405    4.635928    1.135124
| 37> H     -0.197700    2.765742    2.672024
| 38> H      0.126528    0.494824    1.801561
| 39> **                         ****END OF INPUT****
 Total Charge           Charge          ....    0
 Multiplicity           Mult            ....    1
 Number of Electrons    NEL             ....  106
Dispersion correction           -0.061774699
FINAL SINGLE POINT ENERGY      -809.326211314276
Dispersion correction             ... done (  0.1 sec)
Dispersion correction           -0.061677369
FINAL SINGLE POINT ENERGY      -809.328658172749
Dispersion correction             ... done (  0.1 sec)
Dispersion correction           -0.061806195
FINAL SINGLE POINT ENERGY      -809.329090968757
Dispersion correction             ... done (  0.1 sec)
FINAL SINGLE POINT ENERGY      -809.329165513778
Dispersion correction             ... done (  0.1 sec)
Dispersion correction           -0.061801378
FINAL SINGLE POINT ENERGY      -809.329177941906
Dispersion correction             ... done (  0.1 sec)
Dispersion correction           -0.061789089
FINAL SINGLE POINT ENERGY      -809.329179837937
Dispersion correction             ... done (  0.1 sec)
                    ***********************HURRAY********************

CARTESIAN COORDINATES (ANGSTROEM)
---------------------------------
  C      4.158976   -0.776431   -0.324832
  C      2.807466   -0.337601   -0.888857
  C      1.638962   -1.171163   -0.357086
  P     -0.005602   -0.678676   -1.100485
  C     -1.135994   -1.706138   -0.020347
  C     -2.616115   -1.365173   -0.210592
  C     -3.542905   -2.238033    0.635801
  C     -0.231908    0.993180   -0.326129
  C     -0.515622    2.079773   -1.167833
  C     -0.695286    3.365340   -0.645923
  C     -0.593798    3.580617    0.730243
  C     -0.311909    2.506211    1.581844
  C     -0.132702    1.225169    1.056617
  H      4.981317   -0.159075   -0.721299
  H      4.376449   -1.827594   -0.579070
  H      4.178260   -0.692362    0.774893
  H      2.824848   -0.397565   -1.991464
  H      2.632935    0.725235   -0.646596
  H      1.596015   -1.113600    0.745421
  H      1.786210   -2.236687   -0.609779
  H     -0.851811   -1.603855    1.042430
  H     -0.950542   -2.760548   -0.293283
  H     -2.878575   -1.465870   -1.278582
  H     -2.776706   -0.302627    0.041799
  H     -3.322976   -2.126243    1.710957
  H     -3.427304   -3.306007    0.384875
  H     -4.600908   -1.970671    0.481861
  H     -0.595933    1.910826   -2.245308
  H     -0.915460    4.199852   -1.316901
  H     -0.733982    4.583670    1.141458
  H     -0.231611    2.668995    2.660035
  H      0.086209    0.397051    1.736134

 Multiplicity           Mult            ....    1
 Number of Electrons    NEL             ....  106
 Basis Dimension        Dim             ....  281

ORBITAL ENERGIES
----------------

  NO   OCC          E(Eh)            E(eV)
   0   2.0000     -77.035135     -2096.2326
   1   2.0000     -10.191680      -277.3297
   2   2.0000     -10.191557      -277.3264
   3   2.0000     -10.190932      -277.3094
   4   2.0000     -10.189772      -277.2778
   5   2.0000     -10.189225      -277.2629
   6   2.0000     -10.186942      -277.2008
   7   2.0000     -10.179801      -277.0065
   8   2.0000     -10.179747      -277.0050
   9   2.0000     -10.179721      -277.0043
  10   2.0000     -10.179673      -277.0030
  11   2.0000     -10.174186      -276.8537
  12   2.0000     -10.174107      -276.8515
  13   2.0000      -6.532113      -177.7478
  14   2.0000      -4.697697      -127.8308
  15   2.0000      -4.697274      -127.8193
  16   2.0000      -4.694441      -127.7422
  17   2.0000      -0.845685       -23.0123
  18   2.0000      -0.784387       -21.3443
  19   2.0000      -0.769879       -20.9495
  20   2.0000      -0.740562       -20.1517
  21   2.0000      -0.736493       -20.0410
  22   2.0000      -0.694966       -18.9110
  23   2.0000      -0.663282       -18.0488
  24   2.0000      -0.605485       -16.4761
  25   2.0000      -0.597893       -16.2695
  26   2.0000      -0.585316       -15.9273
  27   2.0000      -0.567686       -15.4475
  28   2.0000      -0.539078       -14.6691
  29   2.0000      -0.500992       -13.6327
  30   2.0000      -0.462995       -12.5987
  31   2.0000      -0.454748       -12.3743
  32   2.0000      -0.449423       -12.2294
  33   2.0000      -0.444623       -12.0988
  34   2.0000      -0.421098       -11.4587
  35   2.0000      -0.420229       -11.4350
  36   2.0000      -0.418374       -11.3845
  37   2.0000      -0.400596       -10.9008
  38   2.0000      -0.399745       -10.8776
  39   2.0000      -0.380470       -10.3531
  40   2.0000      -0.379150       -10.3172
  41   2.0000      -0.368124       -10.0172
  42   2.0000      -0.364809        -9.9270
  43   2.0000      -0.344948        -9.3865
  44   2.0000      -0.344379        -9.3710
  45   2.0000      -0.334020        -9.0891
  46   2.0000      -0.328787        -8.9468
  47   2.0000      -0.323157        -8.7935
  48   2.0000      -0.307955        -8.3799
  49   2.0000      -0.301237        -8.1971
  50   2.0000      -0.255547        -6.9538
  51   2.0000      -0.251178        -6.8349
  52   2.0000      -0.223552        -6.0832
  53   0.0000      -0.020763        -0.5650
  54   0.0000      -0.009185        -0.2499
  55   0.0000       0.054825         1.4919
  56   0.0000       0.056435         1.5357
  57   0.0000       0.058113         1.5813

MULLIKEN ATOMIC CHARGES
-----------------------
   0 C :    0.011190
   1 C :    0.012445
   2 C :   -0.142158
   3 P :    0.216916
   4 C :   -0.143942
   5 C :    0.012327
   6 C :    0.011286
   7 C :   -0.141063
   8 C :    0.020337
   9 C :    0.021498
  10 C :    0.022267
  11 C :    0.023577
  12 C :    0.011918
  13 H :    0.010435
  14 H :    0.005788
  15 H :    0.005301
  16 H :    0.006551
  17 H :    0.015319
  18 H :    0.010816
  19 H :    0.023090
  20 H :    0.010882
  21 H :    0.023375
  22 H :    0.006717
  23 H :    0.015676
  24 H :    0.005124
  25 H :    0.005842
  26 H :    0.010478
  27 H :   -0.020266
  28 H :   -0.015954
  29 H :   -0.015142
  30 H :   -0.019292
  31 H :   -0.021335
Sum of atomic charges:   -0.0000000

LOEWDIN ATOMIC CHARGES
----------------------
   0 C :   -0.055847
   1 C :   -0.047382
   2 C :   -0.174192
   3 P :    0.470894
   4 C :   -0.174666
   5 C :   -0.047308
   6 C :   -0.055806
   7 C :   -0.175365
   8 C :   -0.029592
   9 C :   -0.026126
  10 C :   -0.021471
  11 C :   -0.026377
  12 C :   -0.028828
  13 H :    0.022867
  14 H :    0.019686
  15 H :    0.019869
  16 H :    0.019673
  17 H :    0.021732
  18 H :    0.010512
  19 H :    0.019682
  20 H :    0.010294
  21 H :    0.019883
  22 H :    0.019838
  23 H :    0.021729
  24 H :    0.019812
  25 H :    0.019693
  26 H :    0.022889
  27 H :    0.023154
  28 H :    0.027104
  29 H :    0.026893
  30 H :    0.026206
  31 H :    0.020553

  Mayer bond orders larger than 0.100000
B(  0-C ,  1-C ) :   1.1084 B(  0-C , 13-H ) :   0.9664 B(  0-C , 14-H ) :   0.9708
B(  0-C , 15-H ) :   0.9695 B(  1-C ,  2-C ) :   1.0584 B(  1-C , 16-H ) :   0.9423
B(  1-C , 17-H ) :   0.9454 B(  2-C ,  3-P ) :   0.9688 B(  2-C , 18-H ) :   0.9284
B(  2-C , 19-H ) :   0.9419 B(  3-P ,  4-C ) :   0.9686 B(  3-P ,  7-C ) :   0.9139
B(  4-C ,  5-C ) :   1.0586 B(  4-C , 20-H ) :   0.9281 B(  4-C , 21-H ) :   0.9417
B(  5-C ,  6-C ) :   1.1085 B(  5-C , 22-H ) :   0.9423 B(  5-C , 23-H ) :   0.9451
B(  6-C , 24-H ) :   0.9694 B(  6-C , 25-H ) :   0.9708 B(  6-C , 26-H ) :   0.9664
B(  7-C ,  8-C ) :   1.3994 B(  7-C , 12-C ) :   1.3506 B(  8-C ,  9-C ) :   1.3780
B(  8-C , 27-H ) :   0.9849 B(  9-C , 10-C ) :   1.3924 B(  9-C , 28-H ) :   0.9858
B( 10-C , 11-C ) :   1.3708 B( 10-C , 29-H ) :   0.9843 B( 11-C , 12-C ) :   1.4129
B( 11-C , 30-H ) :   0.9830 B( 12-C , 31-H ) :   0.9789

Dispersion correction           -0.061790262
FINAL SINGLE POINT ENERGY      -809.329180376361

DIPOLE MOMENT
-------------

Method             : SCF
Type of density    : Electron Density
Multiplicity       :   1
Irrep              :   0
Energy             :  -809.2673901140740327 Eh
Relativity type    :
Basis              : AO
                                X                 Y                 Z
Electronic contribution:     -2.210225778       8.750890877      -4.334139936
Nuclear contribution   :      2.246214227      -8.663060534       4.770722729
                        -----------------------------------------
Total Dipole Moment    :      0.035988449       0.087830343       0.436582793
                        -----------------------------------------
Magnitude (a.u.)       :      0.446781684
Magnitude (Debye)      :      1.135628791

Rotational constants in cm-1:             0.020470             0.018902             0.011617
Rotational constants in MHz :           613.665672           566.668223           348.260759

                             ****ORCA TERMINATED NORMALLY****
TOTAL RUN TIME: 0 days 0 hours 2 minutes 42 seconds 395 msec
