                         Program Version 6.0.0  -   RELEASE   -
|  1> ! RIJCOSX M062X def2-TZVP D3ZERO NormalSCF
|  2> %pal
|  3> nprocs 6
|  4> end
|  5>
|  6> * xyz 0 1
|  7>   C           5.46504692893888     -0.22146735636307      0.87266449680858
|  8>   N           4.50182754235127      0.21400155328277     -0.12164591798892
|  9>   C           4.96041578754006      0.71543972223349     -1.40345015994396
| 10>   C           3.15052168698782      0.19148113773872      0.16819988790977
| 11>   C           2.67285802351936     -0.26742837900411      1.43194396041595
| 12>   C           1.30634766397230     -0.29539819309318      1.71506549933801
| 13>   C           0.35612558776437      0.12581397702920      0.76093342647003
| 14>   C           0.81815692508686      0.60371618361595     -0.48241305523642
| 15>   C           2.18338121318279      0.63634516410446     -0.78092060069242
| 16>   P          -1.39729473260124      0.01276241445262      1.22633166528690
| 17>   O          -1.64231463305752      0.10734246060248      2.72393122242521
| 18>   C          -2.24333016433971      1.33523507652636      0.27655514191130
| 19>   C          -2.65999219712749      1.19215626291289     -1.06185375602106
| 20>   C          -3.27866747998361      2.26687082397205     -1.72200647766659
| 21>   C          -3.49075230888557      3.48039941500937     -1.04575080526260
| 22>   C          -3.09177911047366      3.61791028016087      0.29559940761321
| 23>   C          -2.47198630861689      2.54771295287916      0.95834633045640
| 24>   C          -2.01875559867931     -1.55541769908248      0.50454416123015
| 25>   C          -1.45799939938798     -2.15556272437433     -0.64024843836665
| 26>   C          -2.00448082406361     -3.34716868654718     -1.14517929438847
| 27>   C          -3.10243449043104     -3.94528732741342     -0.50336024293354
| 28>   C          -3.65088359602622     -3.35656220517675      0.64989029112612
| 29>   C          -3.10975258916715     -2.16516198846457      1.15642584614809
| 30>   H           5.43278067526001      0.40255925728030      1.79516334789702
| 31>   H           6.48376062189214     -0.14880283304189      0.45062927575042
| 32>   H           5.29907400951379     -1.27915321521239      1.17798223924391
| 33>   H           4.68294689794440      1.78270503322530     -1.56334246311278
| 34>   H           6.06189563003096      0.64137088814818     -1.45261001576030
| 35>   H           4.54297758604813      0.13010614031347     -2.25386162451859
| 36>   H           3.37879879340635     -0.59799343589400      2.20454401272601
| 37>   H           0.95236619080227     -0.63479530782651      2.70104515610431
| 38>   H           0.10016989733815      0.97510735552504     -1.23025786973341
| 39>   H           2.50039460790573      1.02277740354539     -1.75793435577866
| 40>   H          -2.51838439161500      0.23343400070392     -1.58474379561526
| 41>   H          -3.60577283108438      2.15276559402145     -2.76710156738714
| 42>   H          -3.97930316695650      4.32013648645699     -1.56380273828777
| 43>   H          -3.27121978162493      4.56387313076288      0.82968927828982
| 44>   H          -2.16953177228981      2.62611583959864      2.01428013946665
| 45>   H          -0.58151816877456     -1.69909330988316     -1.12624034942366
| 46>   H          -1.56495525543442     -3.81685147195804     -2.03877689649064
| 47>   H          -3.52685179322887     -4.88133858202897     -0.89824553396133
| 48>   H          -4.50185492410098     -3.83333519772443      1.16063303340565
| 49>   H          -3.51003375153520     -1.69732064101346      2.06935313854665
| 50> **                         ****END OF INPUT****

CARTESIAN COORDINATES (ANGSTROEM)
---------------------------------
  C      5.465047   -0.221467    0.872664
  N      4.501828    0.214002   -0.121646
  C      4.960416    0.715440   -1.403450
  C      3.150522    0.191481    0.168200
  C      2.672858   -0.267428    1.431944
  C      1.306348   -0.295398    1.715065
  C      0.356126    0.125814    0.760933
  C      0.818157    0.603716   -0.482413
  C      2.183381    0.636345   -0.780921
  P     -1.397295    0.012762    1.226332
  O     -1.642315    0.107342    2.723931
  C     -2.243330    1.335235    0.276555
  C     -2.659992    1.192156   -1.061854
  C     -3.278667    2.266871   -1.722006
  C     -3.490752    3.480399   -1.045751
  C     -3.091779    3.617910    0.295599
  C     -2.471986    2.547713    0.958346
  C     -2.018756   -1.555418    0.504544
  C     -1.457999   -2.155563   -0.640248
  C     -2.004481   -3.347169   -1.145179
  C     -3.102434   -3.945287   -0.503360
  C     -3.650884   -3.356562    0.649890
  C     -3.109753   -2.165162    1.156426
  H      5.432781    0.402559    1.795163
  H      6.483761   -0.148803    0.450629
  H      5.299074   -1.279153    1.177982
  H      4.682947    1.782705   -1.563342
  H      6.061896    0.641371   -1.452610
  H      4.542978    0.130106   -2.253862
  H      3.378799   -0.597993    2.204544
  H      0.952366   -0.634795    2.701045
  H      0.100170    0.975107   -1.230258
  H      2.500395    1.022777   -1.757934
  H     -2.518384    0.233434   -1.584744
  H     -3.605773    2.152766   -2.767102
  H     -3.979303    4.320136   -1.563803
  H     -3.271220    4.563873    0.829689
  H     -2.169532    2.626116    2.014280
  H     -0.581518   -1.699093   -1.126240
  H     -1.564955   -3.816851   -2.038777
  H     -3.526852   -4.881339   -0.898246
  H     -4.501855   -3.833335    1.160633
  H     -3.510034   -1.697321    2.069353

 Total Charge           Charge          ....    0
 Multiplicity           Mult            ....    1
 Number of Electrons    NEL             ....  170
 Basis Dimension        Dim             ....  839

ORBITAL ENERGIES
----------------

  NO   OCC          E(Eh)            E(eV)
   0   2.0000     -78.087708     -2124.8746
   1   2.0000     -19.557172      -532.1777
   2   2.0000     -14.779085      -402.1593
   3   2.0000     -10.597608      -288.3756
   4   2.0000     -10.583253      -287.9850
   5   2.0000     -10.582367      -287.9609
   6   2.0000     -10.556788      -287.2648
   7   2.0000     -10.556251      -287.2502
   8   2.0000     -10.555840      -287.2390
   9   2.0000     -10.554637      -287.2063
  10   2.0000     -10.554498      -287.2025
  11   2.0000     -10.553076      -287.1638
  12   2.0000     -10.552899      -287.1590
  13   2.0000     -10.552562      -287.1498
  14   2.0000     -10.552133      -287.1381
  15   2.0000     -10.551636      -287.1246
  16   2.0000     -10.551438      -287.1192
  17   2.0000     -10.550886      -287.1042
  18   2.0000     -10.550724      -287.0998
  19   2.0000     -10.550696      -287.0990
  20   2.0000     -10.546165      -286.9757
  21   2.0000     -10.543957      -286.9157
  22   2.0000     -10.540416      -286.8193
  23   2.0000      -6.893770      -187.5890
  24   2.0000      -5.010977      -136.3556
  25   2.0000      -5.010842      -136.3519
  26   2.0000      -5.009235      -136.3082
  27   2.0000      -1.068740       -29.0819
  28   2.0000      -1.052790       -28.6479
  29   2.0000      -0.959891       -26.1200
  30   2.0000      -0.956133       -26.0177
  31   2.0000      -0.947623       -25.7861
  32   2.0000      -0.862714       -23.4756
  33   2.0000      -0.848752       -23.0957
  34   2.0000      -0.843428       -22.9508
  35   2.0000      -0.843253       -22.9461
  36   2.0000      -0.840922       -22.8826
  37   2.0000      -0.838867       -22.8267
  38   2.0000      -0.820255       -22.3203
  39   2.0000      -0.760758       -20.7013
  40   2.0000      -0.715985       -19.4829
  41   2.0000      -0.691243       -18.8097
  42   2.0000      -0.688759       -18.7421
  43   2.0000      -0.686866       -18.6906
  44   2.0000      -0.677872       -18.4458
  45   2.0000      -0.661124       -17.9901
  46   2.0000      -0.630665       -17.1613
  47   2.0000      -0.605212       -16.4687
  48   2.0000      -0.592746       -16.1294
  49   2.0000      -0.577581       -15.7168
  50   2.0000      -0.559175       -15.2159
  51   2.0000      -0.547807       -14.9066
  52   2.0000      -0.535460       -14.5706
  53   2.0000      -0.527431       -14.3521
  54   2.0000      -0.522046       -14.2056
  55   2.0000      -0.518578       -14.1112
  56   2.0000      -0.516030       -14.0419
  57   2.0000      -0.505723       -13.7614
  58   2.0000      -0.494086       -13.4448
  59   2.0000      -0.490370       -13.3436
  60   2.0000      -0.488902       -13.3037
  61   2.0000      -0.487690       -13.2707
  62   2.0000      -0.481564       -13.1040
  63   2.0000      -0.479504       -13.0480
  64   2.0000      -0.468248       -12.7417
  65   2.0000      -0.452011       -12.2998
  66   2.0000      -0.451008       -12.2726
  67   2.0000      -0.441875       -12.0240
  68   2.0000      -0.440496       -11.9865
  69   2.0000      -0.436273       -11.8716
  70   2.0000      -0.417997       -11.3743
  71   2.0000      -0.407679       -11.0935
  72   2.0000      -0.404157       -10.9977
  73   2.0000      -0.401841       -10.9347
  74   2.0000      -0.399637       -10.8747
  75   2.0000      -0.394556       -10.7364
  76   2.0000      -0.357354        -9.7241
  77   2.0000      -0.331857        -9.0303
  78   2.0000      -0.327328        -8.9071
  79   2.0000      -0.313583        -8.5330
  80   2.0000      -0.312537        -8.5046
  81   2.0000      -0.310804        -8.4574
  82   2.0000      -0.308658        -8.3990
  83   2.0000      -0.306325        -8.3355
  84   2.0000      -0.252848        -6.8804
  85   0.0000      -0.004373        -0.1190
  86   0.0000       0.000597         0.0162
  87   0.0000       0.006617         0.1801
  88   0.0000       0.014328         0.3899
  89   0.0000       0.019910         0.5418

MULLIKEN ATOMIC CHARGES
-----------------------
   0 C :   -0.381575
   1 N :   -0.154973
   2 C :   -0.378957
   3 C :    0.273130
   4 C :   -0.224106
   5 C :   -0.171036
   6 C :   -0.119811
   7 C :   -0.211461
   8 C :   -0.243603
   9 P :    0.628311
  10 O :   -0.604202
  11 C :   -0.070172
  12 C :   -0.196981
  13 C :   -0.150199
  14 C :   -0.135224
  15 C :   -0.137822
  16 C :   -0.149699
  17 C :   -0.078982
  18 C :   -0.190073
  19 C :   -0.150897
  20 C :   -0.135338
  21 C :   -0.137114
  22 C :   -0.147974
  23 H :    0.164891
  24 H :    0.140200
  25 H :    0.162893
  26 H :    0.163183
  27 H :    0.141646
  28 H :    0.159373
  29 H :    0.166630
  30 H :    0.180558
  31 H :    0.187647
  32 H :    0.166144
  33 H :    0.192548
  34 H :    0.146346
  35 H :    0.146889
  36 H :    0.147833
  37 H :    0.183886
  38 H :    0.194223
  39 H :    0.146024
  40 H :    0.146635
  41 H :    0.147613
  42 H :    0.183598
Sum of atomic charges:    0.0000000

LOEWDIN ATOMIC CHARGES
----------------------
   0 C :   -0.306416
   1 N :    0.133714
   2 C :   -0.307049
   3 C :   -0.174739
   4 C :   -0.135565
   5 C :   -0.115395
   6 C :   -0.257123
   7 C :   -0.139177
   8 C :   -0.141201
   9 P :    0.679592
  10 O :   -0.312957
  11 C :   -0.226427
  12 C :   -0.138998
  13 C :   -0.143337
  14 C :   -0.134838
  15 C :   -0.137433
  16 C :   -0.114812
  17 C :   -0.227948
  18 C :   -0.138622
  19 C :   -0.143608
  20 C :   -0.134793
  21 C :   -0.137318
  22 C :   -0.114897
  23 H :    0.120655
  24 H :    0.123471
  25 H :    0.121231
  26 H :    0.120180
  27 H :    0.123677
  28 H :    0.120205
  29 H :    0.151261
  30 H :    0.161237
  31 H :    0.156460
  32 H :    0.150352
  33 H :    0.155346
  34 H :    0.147857
  35 H :    0.147794
  36 H :    0.148804
  37 H :    0.160424
  38 H :    0.155904
  39 H :    0.147648
  40 H :    0.147761
  41 H :    0.148804
  42 H :    0.160276

  Mayer bond orders larger than 0.100000
B(  0-C ,  1-N ) :   0.9548 B(  0-C , 23-H ) :   0.9602 B(  0-C , 24-H ) :   0.9684
B(  0-C , 25-H ) :   0.9601 B(  1-N ,  2-C ) :   0.9574 B(  1-N ,  3-C ) :   1.1751
B(  2-C , 26-H ) :   0.9603 B(  2-C , 27-H ) :   0.9686 B(  2-C , 28-H ) :   0.9602
B(  3-C ,  4-C ) :   1.3092 B(  3-C ,  8-C ) :   1.3216 B(  4-C ,  5-C ) :   1.5354
B(  4-C , 29-H ) :   0.9129 B(  5-C ,  6-C ) :   1.4251 B(  5-C , 30-H ) :   0.9081
B(  6-C ,  7-C ) :   1.3166 B(  6-C ,  9-P ) :   0.9510 B(  7-C ,  8-C ) :   1.6076
B(  7-C , 31-H ) :   0.9048 B(  8-C , 32-H ) :   0.9013 B(  9-P , 10-O ) :   1.9385
B(  9-P , 11-C ) :   0.9161 B(  9-P , 17-C ) :   0.9107 B( 11-C , 12-C ) :   1.3208
B( 11-C , 16-C ) :   1.4377 B( 12-C , 13-C ) :   1.4778 B( 12-C , 33-H ) :   0.9187
B( 13-C , 14-C ) :   1.4456 B( 13-C , 34-H ) :   0.9441 B( 14-C , 15-C ) :   1.4306
B( 14-C , 35-H ) :   0.9471 B( 15-C , 16-C ) :   1.4402 B( 15-C , 36-H ) :   0.9480
B( 16-C , 37-H ) :   0.9090 B( 17-C , 18-C ) :   1.3307 B( 17-C , 22-C ) :   1.4387
B( 18-C , 19-C ) :   1.4774 B( 18-C , 38-H ) :   0.9172 B( 19-C , 20-C ) :   1.4450
B( 19-C , 39-H ) :   0.9442 B( 20-C , 21-C ) :   1.4311 B( 20-C , 40-H ) :   0.9474
B( 21-C , 22-C ) :   1.4425 B( 21-C , 41-H ) :   0.9477 B( 22-C , 42-H ) :   0.9090

Dispersion correction           -0.002880440
FINAL SINGLE POINT ENERGY     -1245.472260230178

DIPOLE MOMENT
-------------

Method             : SCF
Type of density    : Electron Density
Multiplicity       :   1
Irrep              :   0
Energy             : -1245.4693797906670625 Eh
Relativity type    :
Basis              : AO
                                X                 Y                 Z
Electronic contribution:    -16.984449192      -0.389058280       7.081764630
Nuclear contribution   :     18.414712116       0.336981711      -8.886801267
                        -----------------------------------------
Total Dipole Moment    :      1.430262924      -0.052076569      -1.805036637
                        -----------------------------------------
Magnitude (a.u.)       :      2.303588779
Magnitude (Debye)      :      5.855257350

Rotational constants in cm-1:             0.010184             0.005375             0.004297
Rotational constants in MHz :           305.314924           161.125566           128.828938

                             ****ORCA TERMINATED NORMALLY****
TOTAL RUN TIME: 0 days 0 hours 3 minutes 6 seconds 271 msec
