                         Program Version 6.0.0  -   RELEASE   -
|  1> ! RIJCOSX M062X def2-TZVP D3ZERO NormalSCF
|  2> %pal
|  3> nprocs 6
|  4> end
|  5>
|  6> * xyz 0 1
|  7>   C           2.29738920432803      1.44488851567289      0.44990166834090
|  8>   C           1.65378445849771      0.12386714593170     -0.00209224993080
|  9>   C           2.58268507584003     -1.06399568295329      0.29060240819459
| 10>   P           0.01076027110784     -0.09354422989086      0.91008496738881
| 11>   C          -1.14906329821635      1.14714597749450      0.03982469459980
| 12>   C          -1.37399642492346      2.36038055207586      0.95891159882804
| 13>   C          -0.77812499781222      1.58903541213541     -1.38273168037169
| 14>   C          -0.61079813684263     -1.75491718059715      0.23555379946664
| 15>   C          -0.70206821241127     -1.91092634300411     -1.28664839375429
| 16>   C          -1.93934865439235     -2.10696857403283      0.92351525751725
| 17>   H           1.66184424745667      2.32373223074462      0.22104754857755
| 18>   H           3.27455297254350      1.60030042269165     -0.05571656931699
| 19>   H           2.47761065402245      1.44219696920796      1.54540140291449
| 20>   H           1.47073613759867      0.17051298117050     -1.09779411335788
| 21>   H           2.20813901324541     -2.01129548481710     -0.14579520464934
| 22>   H           3.59249378418249     -0.88063774219175     -0.13453012857845
| 23>   H           2.70395401047891     -1.21852971152604      1.38424199361878
| 24>   H          -2.10969931094496      0.58633867224906     -0.01371830771409
| 25>   H          -1.69847969250944      2.04948136938776      1.97198308902063
| 26>   H          -2.14657241250074      3.03996790179047      0.53865792576555
| 27>   H          -0.44282866593099      2.95321162791988      1.07984545487202
| 28>   H           0.15244285943502      2.19264231039507     -1.39558991400856
| 29>   H          -1.58203400326397      2.22859929585203     -1.80720773255066
| 30>   H          -0.63323943176339      0.73592346607893     -2.07185810250248
| 31>   H           0.15666314739479     -2.46537963670117      0.61675099034316
| 32>   H           0.24702648193825     -1.64969632995840     -1.79673967202545
| 33>   H          -0.94793527543348     -2.96019184618876     -1.55941509285193
| 34>   H          -1.50311531532304     -1.27090369786369     -1.71045358240171
| 35>   H          -1.85849404443949     -2.03597993300280      2.02710329080133
| 36>   H          -2.75657601068783     -1.42608702819165      0.60221206117490
| 37>   H          -2.25770643067418     -3.13917442987868      0.66465059258987
| 38> **                         ****END OF INPUT****

CARTESIAN COORDINATES (ANGSTROEM)
---------------------------------
  C      2.297389    1.444889    0.449902
  C      1.653784    0.123867   -0.002092
  C      2.582685   -1.063996    0.290602
  P      0.010760   -0.093544    0.910085
  C     -1.149063    1.147146    0.039825
  C     -1.373996    2.360381    0.958912
  C     -0.778125    1.589035   -1.382732
  C     -0.610798   -1.754917    0.235554
  C     -0.702068   -1.910926   -1.286648
  C     -1.939349   -2.106969    0.923515
  H      1.661844    2.323732    0.221048
  H      3.274553    1.600300   -0.055717
  H      2.477611    1.442197    1.545401
  H      1.470736    0.170513   -1.097794
  H      2.208139   -2.011295   -0.145795
  H      3.592494   -0.880638   -0.134530
  H      2.703954   -1.218530    1.384242
  H     -2.109699    0.586339   -0.013718
  H     -1.698480    2.049481    1.971983
  H     -2.146572    3.039968    0.538658
  H     -0.442829    2.953212    1.079845
  H      0.152443    2.192642   -1.395590
  H     -1.582034    2.228599   -1.807208
  H     -0.633239    0.735923   -2.071858
  H      0.156663   -2.465380    0.616751
  H      0.247026   -1.649696   -1.796740
  H     -0.947935   -2.960192   -1.559415
  H     -1.503115   -1.270904   -1.710454
  H     -1.858494   -2.035980    2.027103
  H     -2.756576   -1.426087    0.602212
  H     -2.257706   -3.139174    0.664651

 Total Charge           Charge          ....    0
 Multiplicity           Mult            ....    1
 Number of Electrons    NEL             ....   90
 Basis Dimension        Dim             ....  442

ORBITAL ENERGIES
----------------

  NO   OCC          E(Eh)            E(eV)
   0   2.0000     -78.008120     -2122.7089
   1   2.0000     -10.545060      -286.9457
   2   2.0000     -10.544793      -286.9384
   3   2.0000     -10.543677      -286.9080
   4   2.0000     -10.532941      -286.6159
   5   2.0000     -10.532002      -286.5903
   6   2.0000     -10.531199      -286.5685
   7   2.0000     -10.531126      -286.5665
   8   2.0000     -10.530972      -286.5623
   9   2.0000     -10.527931      -286.4796
  10   2.0000      -6.824386      -185.7010
  11   2.0000      -4.938724      -134.3895
  12   2.0000      -4.938416      -134.3811
  13   2.0000      -4.938325      -134.3787
  14   2.0000      -0.902687       -24.5634
  15   2.0000      -0.873790       -23.7770
  16   2.0000      -0.871545       -23.7160
  17   2.0000      -0.775006       -21.0890
  18   2.0000      -0.771651       -20.9977
  19   2.0000      -0.766897       -20.8683
  20   2.0000      -0.717580       -19.5263
  21   2.0000      -0.658228       -17.9113
  22   2.0000      -0.654880       -17.8202
  23   2.0000      -0.580336       -15.7917
  24   2.0000      -0.534578       -14.5466
  25   2.0000      -0.529592       -14.4109
  26   2.0000      -0.515366       -14.0238
  27   2.0000      -0.495091       -13.4721
  28   2.0000      -0.491248       -13.3675
  29   2.0000      -0.473406       -12.8820
  30   2.0000      -0.468228       -12.7411
  31   2.0000      -0.458176       -12.4676
  32   2.0000      -0.452563       -12.3149
  33   2.0000      -0.447576       -12.1792
  34   2.0000      -0.442628       -12.0445
  35   2.0000      -0.440196       -11.9783
  36   2.0000      -0.406982       -11.0745
  37   2.0000      -0.406081       -11.0500
  38   2.0000      -0.403984       -10.9930
  39   2.0000      -0.397196       -10.8082
  40   2.0000      -0.394530       -10.7357
  41   2.0000      -0.390592       -10.6286
  42   2.0000      -0.333721        -9.0810
  43   2.0000      -0.331620        -9.0238
  44   2.0000      -0.265479        -7.2240
  45   0.0000       0.055769         1.5176
  46   0.0000       0.061567         1.6753
  47   0.0000       0.067182         1.8281
  48   0.0000       0.088704         2.4138
  49   0.0000       0.091785         2.4976

MULLIKEN ATOMIC CHARGES
-----------------------
   0 C :   -0.439821
   1 C :   -0.210162
   2 C :   -0.458494
   3 P :    0.171629
   4 C :   -0.250103
   5 C :   -0.388234
   6 C :   -0.452735
   7 C :   -0.211161
   8 C :   -0.476937
   9 C :   -0.437899
  10 H :    0.135969
  11 H :    0.146503
  12 H :    0.159486
  13 H :    0.155766
  14 H :    0.150447
  15 H :    0.145058
  16 H :    0.161549
  17 H :    0.137556
  18 H :    0.153154
  19 H :    0.138958
  20 H :    0.139236
  21 H :    0.146946
  22 H :    0.151641
  23 H :    0.163176
  24 H :    0.156856
  25 H :    0.163678
  26 H :    0.154010
  27 H :    0.149508
  28 H :    0.159529
  29 H :    0.140587
  30 H :    0.144304
Sum of atomic charges:   -0.0000000

LOEWDIN ATOMIC CHARGES
----------------------
   0 C :   -0.325988
   1 C :   -0.442445
   2 C :   -0.324600
   3 P :    0.626769
   4 C :   -0.435171
   5 C :   -0.330411
   6 C :   -0.323894
   7 C :   -0.447940
   8 C :   -0.323705
   9 C :   -0.327859
  10 H :    0.116967
  11 H :    0.123925
  12 H :    0.127078
  13 H :    0.139909
  14 H :    0.121008
  15 H :    0.125252
  16 H :    0.127006
  17 H :    0.147950
  18 H :    0.123601
  19 H :    0.121334
  20 H :    0.120863
  21 H :    0.123071
  22 H :    0.125797
  23 H :    0.120480
  24 H :    0.149687
  25 H :    0.122129
  26 H :    0.125569
  27 H :    0.124295
  28 H :    0.125858
  29 H :    0.119624
  30 H :    0.123842

  Mayer bond orders larger than 0.100000
B(  0-C ,  1-C ) :   0.9442 B(  0-C , 10-H ) :   0.9725 B(  0-C , 11-H ) :   0.9710
B(  0-C , 12-H ) :   0.9658 B(  1-C ,  2-C ) :   0.9237 B(  1-C ,  3-P ) :   0.9501
B(  1-C , 13-H ) :   0.9451 B(  2-C , 14-H ) :   0.9732 B(  2-C , 15-H ) :   0.9685
B(  2-C , 16-H ) :   0.9666 B(  3-P ,  4-C ) :   0.9428 B(  3-P ,  7-C ) :   0.9437
B(  4-C ,  5-C ) :   0.9532 B(  4-C ,  6-C ) :   0.9204 B(  4-C , 17-H ) :   0.9437
B(  5-C , 18-H ) :   0.9742 B(  5-C , 19-H ) :   0.9693 B(  5-C , 20-H ) :   0.9612
B(  6-C , 21-H ) :   0.9647 B(  6-C , 22-H ) :   0.9651 B(  6-C , 23-H ) :   0.9751
B(  7-C ,  8-C ) :   0.8954 B(  7-C ,  9-C ) :   0.9570 B(  7-C , 24-H ) :   0.9489
B(  8-C , 25-H ) :   0.9753 B(  8-C , 26-H ) :   0.9659 B(  8-C , 27-H ) :   0.9638
B(  9-C , 28-H ) :   0.9744 B(  9-C , 29-H ) :   0.9649 B(  9-C , 30-H ) :   0.9693

Dispersion correction           -0.001555474
FINAL SINGLE POINT ENERGY      -696.894064135149

DIPOLE MOMENT
-------------

Method             : SCF
Type of density    : Electron Density
Multiplicity       :   1
Irrep              :   0
Energy             :  -696.8925086611088773 Eh
Relativity type    :
Basis              : AO
                                X                 Y                 Z
Electronic contribution:     -0.010929977      -0.985122378       4.896914653
Nuclear contribution   :     -0.013984612       0.882720476      -5.373735931
                        -----------------------------------------
Total Dipole Moment    :     -0.024914589      -0.102401902      -0.476821278
                        -----------------------------------------
Magnitude (a.u.)       :      0.488329210
Magnitude (Debye)      :      1.241234210

Rotational constants in cm-1:             0.036246             0.032954             0.023048
Rotational constants in MHz :          1086.641958           987.928386           690.949439

                             ****ORCA TERMINATED NORMALLY****
TOTAL RUN TIME: 0 days 0 hours 0 minutes 54 seconds 985 msec
