                         Program Version 6.0.0  -   RELEASE   -
|  1> ! RIJONX B3LYP def2-SVP D3BJ TIGHTSCF Opt
|  2> %pal
|  3> nprocs 6
|  4> end
|  5>
|  6> * xyz 0 1
|  7> C     -4.008100    0.530957    1.313228
|  8> C     -4.041488    0.662644   -0.071718
|  9> C     -2.892531    0.410000   -0.826479
| 10> C     -1.691311    0.019301   -0.210324
| 11> C     -1.678680   -0.105301    1.186402
| 12> C     -2.827383    0.147040    1.942320
| 13> P     -0.241265   -0.264413   -1.279591
| 14> C      0.668203   -1.651850   -0.533695
| 15> C      2.070354   -1.721124   -0.597710
| 16> C      2.768283   -2.809085   -0.063144
| 17> C      2.075293   -3.863076    0.523360
| 18> C      0.685201   -3.836332    0.561828
| 19> C     -0.010181   -2.747431    0.026783
| 20> C      0.728436    1.232767   -0.896131
| 21> C      0.822190    2.229330   -1.884601
| 22> C      1.525887    3.412113   -1.665370
| 23> C      2.152915    3.632202   -0.451341
| 24> C      2.076292    2.671235    0.542686
| 25> C      1.372183    1.487152    0.324914
| 26> F      1.333006    0.592728    1.323204
| 27> F      2.683600    2.878244    1.719753
| 28> F      2.832221    4.767794   -0.239775
| 29> F      1.595986    4.336894   -2.633092
| 30> F      0.226954    2.058004   -3.076469
| 31> H     -4.900741    0.726506    1.901616
| 32> H     -4.961127    0.962073   -0.567964
| 33> H     -2.948525    0.522528   -1.908195
| 34> H     -0.775820   -0.406379    1.713057
| 35> H     -2.796238    0.041981    3.023978
| 36> H      2.647649   -0.931905   -1.072793
| 37> H      3.853826   -2.834566   -0.113517
| 38> H      2.616555   -4.709765    0.936973
| 39> H      0.136511   -4.665773    1.000590
| 40> H     -1.098154   -2.774495    0.051217
| 41> **                         ****END OF INPUT****
 Total Charge           Charge          ....    0
 Multiplicity           Mult            ....    1
 Number of Electrons    NEL             ....  178
Dispersion correction           -0.087291777
FINAL SINGLE POINT ENERGY     -1530.894435160556
Dispersion correction             ... done (  0.1 sec)
Dispersion correction           -0.087673431
FINAL SINGLE POINT ENERGY     -1530.897437437935
Dispersion correction             ... done (  0.1 sec)
Dispersion correction           -0.087499024
FINAL SINGLE POINT ENERGY     -1530.897569735468
Dispersion correction             ... done (  0.1 sec)
FINAL SINGLE POINT ENERGY     -1530.897921210422
FINAL SINGLE POINT ENERGY     -1530.898322160922
FINAL SINGLE POINT ENERGY     -1530.898256287406
FINAL SINGLE POINT ENERGY     -1530.898512271466
FINAL SINGLE POINT ENERGY     -1530.898572485595
FINAL SINGLE POINT ENERGY     -1530.898659254517
FINAL SINGLE POINT ENERGY     -1530.898759153549
FINAL SINGLE POINT ENERGY     -1530.898814915810
FINAL SINGLE POINT ENERGY     -1530.898832434943
FINAL SINGLE POINT ENERGY     -1530.898846878802
Dispersion correction             ... done (  0.1 sec)
Dispersion correction           -0.087631029
FINAL SINGLE POINT ENERGY     -1530.898851184987
Dispersion correction             ... done (  0.1 sec)
Dispersion correction           -0.087635753
FINAL SINGLE POINT ENERGY     -1530.898852177159
Dispersion correction             ... done (  0.1 sec)
                    ***********************HURRAY********************

CARTESIAN COORDINATES (ANGSTROEM)
---------------------------------
  C     -3.950859    0.527325    1.528979
  C     -3.938385    0.976047    0.205356
  C     -2.842735    0.696623   -0.614994
  C     -1.737046   -0.013791   -0.117193
  C     -1.759158   -0.461408    1.213027
  C     -2.862071   -0.195231    2.027334
  P     -0.358034   -0.305513   -1.318790
  C      0.643513   -1.623889   -0.512710
  C      2.025327   -1.515251   -0.295476
  C      2.753263   -2.595493    0.211033
  C      2.112638   -3.800613    0.508317
  C      0.737383   -3.923396    0.284759
  C      0.011209   -2.848707   -0.230326
  C      0.675430    1.207976   -1.001584
  C      1.017318    2.021997   -2.089667
  C      1.748701    3.203311   -1.932670
  C      2.155377    3.593207   -0.655896
  C      1.835996    2.801280    0.451182
  C      1.105463    1.627212    0.265777
  F      0.840030    0.897121    1.347219
  F      2.232542    3.172786    1.665180
  F      2.848113    4.712039   -0.491572
  F      2.057087    3.955123   -2.985216
  F      0.649859    1.691814   -3.326322
  H     -4.810407    0.736105    2.170976
  H     -4.788734    1.534628   -0.194039
  H     -2.844359    1.030508   -1.656914
  H     -0.909662   -1.014085    1.615585
  H     -2.867296   -0.548875    3.061657
  H      2.544526   -0.581823   -0.522154
  H      3.828332   -2.490361    0.378111
  H      2.682206   -4.642453    0.909456
  H      0.226535   -4.863399    0.508709
  H     -1.062101   -2.960815   -0.407134

 Multiplicity           Mult            ....    1
 Number of Electrons    NEL             ....  178
 Basis Dimension        Dim             ....  390

ORBITAL ENERGIES
----------------

  NO   OCC          E(Eh)            E(eV)
   0   2.0000     -77.072804     -2097.2576
   1   2.0000     -24.731587      -672.9807
   2   2.0000     -24.725800      -672.8232
   3   2.0000     -24.725433      -672.8132
   4   2.0000     -24.725272      -672.8089
   5   2.0000     -24.721814      -672.7148
   6   2.0000     -10.310654      -280.5671
   7   2.0000     -10.306295      -280.4485
   8   2.0000     -10.306252      -280.4474
   9   2.0000     -10.302633      -280.3489
  10   2.0000     -10.302414      -280.3429
  11   2.0000     -10.227215      -278.2967
  12   2.0000     -10.203176      -277.6425
  13   2.0000     -10.201144      -277.5872
  14   2.0000     -10.199075      -277.5309
  15   2.0000     -10.199011      -277.5292
  16   2.0000     -10.198478      -277.5147
  17   2.0000     -10.197380      -277.4848
  18   2.0000     -10.197078      -277.4766
  19   2.0000     -10.196655      -277.4651
  20   2.0000     -10.196258      -277.4543
  21   2.0000     -10.196169      -277.4519
  22   2.0000     -10.195708      -277.4393
  23   2.0000     -10.195484      -277.4332
  24   2.0000      -6.567637      -178.7145
  25   2.0000      -4.733464      -128.8041
  26   2.0000      -4.732739      -128.7844
  27   2.0000      -4.730031      -128.7107
  28   2.0000      -1.253168       -34.1004
  29   2.0000      -1.244379       -33.8613
  30   2.0000      -1.239279       -33.7225
  31   2.0000      -1.229459       -33.4553
  32   2.0000      -1.226443       -33.3732
  33   2.0000      -0.896716       -24.4009
  34   2.0000      -0.857006       -23.3203
  35   2.0000      -0.850962       -23.1558
  36   2.0000      -0.791870       -21.5479
  37   2.0000      -0.774340       -21.0709
  38   2.0000      -0.759194       -20.6587
  39   2.0000      -0.744617       -20.2621
  40   2.0000      -0.744269       -20.2526
  41   2.0000      -0.739776       -20.1303
  42   2.0000      -0.681990       -18.5579
  43   2.0000      -0.663096       -18.0438
  44   2.0000      -0.639971       -17.4145
  45   2.0000      -0.609105       -16.5746
  46   2.0000      -0.605579       -16.4786
  47   2.0000      -0.599662       -16.3176
  48   2.0000      -0.598772       -16.2934
  49   2.0000      -0.595837       -16.2135
  50   2.0000      -0.582385       -15.8475
  51   2.0000      -0.561930       -15.2909
  52   2.0000      -0.553054       -15.0494
  53   2.0000      -0.546954       -14.8834
  54   2.0000      -0.532920       -14.5015
  55   2.0000      -0.526434       -14.3250
  56   2.0000      -0.520885       -14.1740
  57   2.0000      -0.506583       -13.7848
  58   2.0000      -0.502501       -13.6737
  59   2.0000      -0.492525       -13.4023
  60   2.0000      -0.473485       -12.8842
  61   2.0000      -0.469632       -12.7793
  62   2.0000      -0.464106       -12.6290
  63   2.0000      -0.460314       -12.5258
  64   2.0000      -0.453618       -12.3436
  65   2.0000      -0.451429       -12.2840
  66   2.0000      -0.445965       -12.1353
  67   2.0000      -0.445201       -12.1145
  68   2.0000      -0.431778       -11.7493
  69   2.0000      -0.426982       -11.6188
  70   2.0000      -0.426249       -11.5988
  71   2.0000      -0.418899       -11.3988
  72   2.0000      -0.414618       -11.2823
  73   2.0000      -0.396418       -10.7871
  74   2.0000      -0.388514       -10.5720
  75   2.0000      -0.377627       -10.2758
  76   2.0000      -0.374851       -10.2002
  77   2.0000      -0.361445        -9.8354
  78   2.0000      -0.357199        -9.7199
  79   2.0000      -0.351727        -9.5710
  80   2.0000      -0.348841        -9.4924
  81   2.0000      -0.333482        -9.0745
  82   2.0000      -0.287444        -7.8218
  83   2.0000      -0.278532        -7.5793
  84   2.0000      -0.265086        -7.2133
  85   2.0000      -0.262399        -7.1402
  86   2.0000      -0.260842        -7.0979
  87   2.0000      -0.259428        -7.0594
  88   2.0000      -0.227597        -6.1932
  89   0.0000      -0.049883        -1.3574
  90   0.0000      -0.032449        -0.8830
  91   0.0000      -0.023061        -0.6275
  92   0.0000      -0.021732        -0.5913
  93   0.0000      -0.020116        -0.5474

MULLIKEN ATOMIC CHARGES
-----------------------
   0 C :    0.027467
   1 C :    0.019768
   2 C :    0.026923
   3 C :   -0.155550
   4 C :    0.025153
   5 C :    0.022020
   6 P :    0.416320
   7 C :   -0.133243
   8 C :    0.010444
   9 C :    0.025766
  10 C :    0.022914
  11 C :    0.021848
  12 C :   -0.001830
  13 C :   -0.298327
  14 C :    0.178119
  15 C :    0.191329
  16 C :    0.119578
  17 C :    0.201352
  18 C :    0.198636
  19 F :   -0.164829
  20 F :   -0.160853
  21 F :   -0.156378
  22 F :   -0.160443
  23 F :   -0.160381
  24 H :   -0.012118
  25 H :   -0.012702
  26 H :   -0.013604
  27 H :    0.004002
  28 H :   -0.014262
  29 H :   -0.015080
  30 H :   -0.014726
  31 H :   -0.013250
  32 H :   -0.012977
  33 H :   -0.011086
Sum of atomic charges:   -0.0000000

LOEWDIN ATOMIC CHARGES
----------------------
   0 C :   -0.017416
   1 C :   -0.025384
   2 C :   -0.028229
   3 C :   -0.180376
   4 C :   -0.022333
   5 C :   -0.024150
   6 P :    0.544344
   7 C :   -0.175332
   8 C :   -0.034962
   9 C :   -0.020360
  10 C :   -0.023432
  11 C :   -0.021651
  12 C :   -0.031357
  13 C :   -0.235122
  14 C :    0.049466
  15 C :    0.018234
  16 C :    0.039993
  17 C :    0.019267
  18 C :    0.054457
  19 F :   -0.026851
  20 F :   -0.035131
  21 F :   -0.026271
  22 F :   -0.034637
  23 F :   -0.036719
  24 H :    0.028453
  25 H :    0.028787
  26 H :    0.024777
  27 H :    0.028150
  28 H :    0.028664
  29 H :    0.022773
  30 H :    0.028676
  31 H :    0.028228
  32 H :    0.029030
  33 H :    0.026415

  Mayer bond orders larger than 0.100000
B(  0-C ,  1-C ) :   1.3842 B(  0-C ,  5-C ) :   1.3751 B(  0-C , 24-H ) :   0.9848
B(  1-C ,  2-C ) :   1.3985 B(  1-C , 25-H ) :   0.9851 B(  2-C ,  3-C ) :   1.3687
B(  2-C , 26-H ) :   0.9812 B(  3-C ,  4-C ) :   1.3872 B(  3-C ,  6-P ) :   0.9383
B(  4-C ,  5-C ) :   1.3996 B(  4-C , 27-H ) :   0.9733 B(  5-C , 28-H ) :   0.9831
B(  6-P ,  7-C ) :   0.9160 B(  6-P , 13-C ) :   0.9057 B(  7-C ,  8-C ) :   1.3937
B(  7-C , 12-C ) :   1.3636 B(  8-C ,  9-C ) :   1.3958 B(  8-C , 29-H ) :   0.9748
B(  9-C , 10-C ) :   1.3869 B(  9-C , 30-H ) :   0.9820 B( 10-C , 11-C ) :   1.3745
B( 10-C , 31-H ) :   0.9850 B( 11-C , 12-C ) :   1.4170 B( 11-C , 32-H ) :   0.9843
B( 12-C , 33-H ) :   0.9804 B( 13-C , 14-C ) :   1.3503 B( 13-C , 18-C ) :   1.3078
B( 14-C , 15-C ) :   1.2658 B( 14-C , 23-F ) :   1.1554 B( 15-C , 16-C ) :   1.2677
B( 15-C , 22-F ) :   1.1632 B( 16-C , 17-C ) :   1.2548 B( 16-C , 21-F ) :   1.1529
B( 17-C , 18-C ) :   1.2951 B( 17-C , 20-F ) :   1.1646 B( 18-C , 19-F ) :   1.1086

Dispersion correction           -0.087633277
FINAL SINGLE POINT ENERGY     -1530.898852177831

DIPOLE MOMENT
-------------

Method             : SCF
Type of density    : Electron Density
Multiplicity       :   1
Irrep              :   0
Energy             : -1530.8112189010726070 Eh
Relativity type    :
Basis              : AO
                                X                 Y                 Z
Electronic contribution:     16.393655413      28.196674564     -10.929502394
Nuclear contribution   :    -16.729336413     -28.745440407      11.462179967
                        -----------------------------------------
Total Dipole Moment    :     -0.335681000      -0.548765843       0.532677573
                        -----------------------------------------
Magnitude (a.u.)       :      0.835207209
Magnitude (Debye)      :      2.122928013

Rotational constants in cm-1:             0.009213             0.005838             0.004820
Rotational constants in MHz :           276.184131           175.032709           144.487697

                             ****ORCA TERMINATED NORMALLY****
TOTAL RUN TIME: 0 days 0 hours 14 minutes 47 seconds 88 msec
