                         Program Version 6.0.0  -   RELEASE   -
|  1> ! RIJCOSX M062X def2-TZVP D3ZERO NormalSCF
|  2> %pal
|  3> nprocs 6
|  4> end
|  5>
|  6> * xyz 0 1
|  7>   C          -3.20610611001572     -2.78987456411636      0.19762395398464
|  8>   C          -2.53340432875065     -3.01789136208149     -1.01569844311949
|  9>   C          -1.61379411819540     -2.07406148334933     -1.49727906260347
| 10>   C          -1.33821977174385     -0.89956490304853     -0.76187468865948
| 11>   C          -2.01874842499897     -0.67717519760631      0.45348995229503
| 12>   C          -2.94952669707533     -1.61700958686004      0.92692995093325
| 13>   P          -0.08335917918561      0.26340579624103     -1.47070851110105
| 14>   C          -0.28611154100228      1.72726196163927     -0.35447141155893
| 15>   C          -1.28794902343054      2.66138571101514     -0.70081320622098
| 16>   C          -1.52379294275145      3.78617162794890      0.10378899707979
| 17>   C          -0.74636403200666      4.00372171433485      1.25485888505453
| 18>   C           0.26201419572023      3.08788741415477      1.59806111437288
| 19>   C           0.49036268300277      1.95341125699821      0.80143433218230
| 20>   C           1.48073012398729     -0.46967295906127     -0.80342825663914
| 21>   C           2.69944650169162      0.05343109242765     -1.28993743078576
| 22>   C           3.93174609533931     -0.42851303278273     -0.82681237948128
| 23>   C           3.94496314630451     -1.46467645553499      0.12283696029198
| 24>   C           2.74854138312000     -2.01375572322410      0.61124118441368
| 25>   C           1.52264006467394     -1.50997769060056      0.14780192077161
| 26>   Br          5.61580628115022     -2.13971515453783      0.75171712528599
| 27>   H          -3.93451609797974     -3.52553690325023      0.57180176818229
| 28>   H          -2.73347945121375     -3.93219791416470     -1.59550570578233
| 29>   H          -1.09680967535308     -2.24860549654944     -2.45499862022030
| 30>   H          -1.81506465676345      0.23518064047773      1.03384766577988
| 31>   H          -3.47527061350547     -1.43193812682340      1.87658105834343
| 32>   H          -1.88955610957352      2.49915331796463     -1.60997900267459
| 33>   H          -2.31229262408536      4.50250991491597     -0.17420716931537
| 34>   H          -0.92411949783295      4.89077272576570      1.88200163867797
| 35>   H           0.87553068572500      3.25386918534294      2.49722105185728
| 36>   H           1.27518042274517      1.23500826696713      1.08183553600932
| 37>   H           2.68525412391132      0.85746057623187     -2.04360033173389
| 38>   H           4.87611082992898     -0.01210145524969     -1.20508652164395
| 39>   H           2.77492793470325     -2.82519878815105      1.35254473657522
| 40>   H           0.58522942346020     -1.93316640543374      0.53878190944892
| 41> **                         ****END OF INPUT****

CARTESIAN COORDINATES (ANGSTROEM)
---------------------------------
  C     -3.206106   -2.789875    0.197624
  C     -2.533404   -3.017891   -1.015698
  C     -1.613794   -2.074061   -1.497279
  C     -1.338220   -0.899565   -0.761875
  C     -2.018748   -0.677175    0.453490
  C     -2.949527   -1.617010    0.926930
  P     -0.083359    0.263406   -1.470709
  C     -0.286112    1.727262   -0.354471
  C     -1.287949    2.661386   -0.700813
  C     -1.523793    3.786172    0.103789
  C     -0.746364    4.003722    1.254859
  C      0.262014    3.087887    1.598061
  C      0.490363    1.953411    0.801434
  C      1.480730   -0.469673   -0.803428
  C      2.699447    0.053431   -1.289937
  C      3.931746   -0.428513   -0.826812
  C      3.944963   -1.464676    0.122837
  C      2.748541   -2.013756    0.611241
  C      1.522640   -1.509978    0.147802
  Br     5.615806   -2.139715    0.751717
  H     -3.934516   -3.525537    0.571802
  H     -2.733479   -3.932198   -1.595506
  H     -1.096810   -2.248605   -2.454999
  H     -1.815065    0.235181    1.033848
  H     -3.475271   -1.431938    1.876581
  H     -1.889556    2.499153   -1.609979
  H     -2.312293    4.502510   -0.174207
  H     -0.924119    4.890773    1.882002
  H      0.875531    3.253869    2.497221
  H      1.275180    1.235008    1.081836
  H      2.685254    0.857461   -2.043600
  H      4.876111   -0.012101   -1.205087
  H      2.774928   -2.825199    1.352545
  H      0.585229   -1.933166    0.538782

 Total Charge           Charge          ....    0
 Multiplicity           Mult            ....    1
 Number of Electrons    NEL             ....  172
 Basis Dimension        Dim             ....  727

ORBITAL ENERGIES
----------------

  NO   OCC          E(Eh)            E(eV)
   0   2.0000    -485.379241    -13207.8406
   1   2.0000     -78.038025     -2123.5226
   2   2.0000     -63.360983     -1724.1400
   3   2.0000     -57.179438     -1555.9316
   4   2.0000     -57.177861     -1555.8887
   5   2.0000     -57.177839     -1555.8881
   6   2.0000     -10.611240      -288.7465
   7   2.0000     -10.566211      -287.5212
   8   2.0000     -10.565621      -287.5052
   9   2.0000     -10.564930      -287.4864
  10   2.0000     -10.564086      -287.4634
  11   2.0000     -10.562625      -287.4236
  12   2.0000     -10.559893      -287.3493
  13   2.0000     -10.559862      -287.3484
  14   2.0000     -10.556941      -287.2690
  15   2.0000     -10.556676      -287.2618
  16   2.0000     -10.556303      -287.2516
  17   2.0000     -10.556138      -287.2471
  18   2.0000     -10.555298      -287.2243
  19   2.0000     -10.555281      -287.2238
  20   2.0000     -10.555080      -287.2183
  21   2.0000     -10.554989      -287.2159
  22   2.0000     -10.554531      -287.2034
  23   2.0000     -10.554435      -287.2008
  24   2.0000      -9.027633      -245.6544
  25   2.0000      -6.854032      -186.5077
  26   2.0000      -6.851486      -186.4384
  27   2.0000      -6.843084      -186.2098
  28   2.0000      -6.842823      -186.2027
  29   2.0000      -4.968656      -135.2040
  30   2.0000      -4.968231      -135.1924
  31   2.0000      -4.968230      -135.1924
  32   2.0000      -2.885457       -78.5173
  33   2.0000      -2.882486       -78.4364
  34   2.0000      -2.882170       -78.4278
  35   2.0000      -2.874021       -78.2061
  36   2.0000      -2.874011       -78.2058
  37   2.0000      -0.979739       -26.6601
  38   2.0000      -0.963479       -26.2176
  39   2.0000      -0.958182       -26.0735
  40   2.0000      -0.903296       -24.5799
  41   2.0000      -0.863701       -23.5025
  42   2.0000      -0.856261       -23.3000
  43   2.0000      -0.846073       -23.0228
  44   2.0000      -0.845450       -23.0059
  45   2.0000      -0.839565       -22.8457
  46   2.0000      -0.818103       -22.2617
  47   2.0000      -0.732827       -19.9412
  48   2.0000      -0.704785       -19.1782
  49   2.0000      -0.692242       -18.8369
  50   2.0000      -0.691493       -18.8165
  51   2.0000      -0.680005       -18.5039
  52   2.0000      -0.676347       -18.4043
  53   2.0000      -0.639852       -17.4113
  54   2.0000      -0.593656       -16.1542
  55   2.0000      -0.589200       -16.0330
  56   2.0000      -0.561932       -15.2909
  57   2.0000      -0.540302       -14.7024
  58   2.0000      -0.532987       -14.5033
  59   2.0000      -0.528635       -14.3849
  60   2.0000      -0.521319       -14.1858
  61   2.0000      -0.520087       -14.1523
  62   2.0000      -0.515183       -14.0189
  63   2.0000      -0.501388       -13.6435
  64   2.0000      -0.492024       -13.3886
  65   2.0000      -0.491336       -13.3699
  66   2.0000      -0.476686       -12.9713
  67   2.0000      -0.469417       -12.7735
  68   2.0000      -0.457906       -12.4603
  69   2.0000      -0.443645       -12.0722
  70   2.0000      -0.440152       -11.9771
  71   2.0000      -0.430126       -11.7043
  72   2.0000      -0.420903       -11.4534
  73   2.0000      -0.408904       -11.1268
  74   2.0000      -0.408028       -11.1030
  75   2.0000      -0.387481       -10.5439
  76   2.0000      -0.384341       -10.4584
  77   2.0000      -0.375737       -10.2243
  78   2.0000      -0.352378        -9.5887
  79   2.0000      -0.335954        -9.1418
  80   2.0000      -0.325792        -8.8652
  81   2.0000      -0.318755        -8.6738
  82   2.0000      -0.314033        -8.5453
  83   2.0000      -0.312385        -8.5004
  84   2.0000      -0.304839        -8.2951
  85   2.0000      -0.271034        -7.3752
  86   0.0000      -0.011321        -0.3081
  87   0.0000      -0.008719        -0.2372
  88   0.0000      -0.006454        -0.1756
  89   0.0000       0.009671         0.2632
  90   0.0000       0.013541         0.3685

MULLIKEN ATOMIC CHARGES
-----------------------
   0 C :   -0.134573
   1 C :   -0.145137
   2 C :   -0.146902
   3 C :   -0.096475
   4 C :   -0.136271
   5 C :   -0.159666
   6 P :    0.129534
   7 C :   -0.096383
   8 C :   -0.145814
   9 C :   -0.144989
  10 C :   -0.135963
  11 C :   -0.161079
  12 C :   -0.135544
  13 C :   -0.114646
  14 C :   -0.136158
  15 C :   -0.153286
  16 C :    0.053524
  17 C :   -0.177003
  18 C :   -0.117553
  19 Br:   -0.100179
  20 H :    0.147674
  21 H :    0.147839
  22 H :    0.156353
  23 H :    0.184987
  24 H :    0.147503
  25 H :    0.155852
  26 H :    0.147851
  27 H :    0.147674
  28 H :    0.148509
  29 H :    0.182735
  30 H :    0.160254
  31 H :    0.169587
  32 H :    0.169787
  33 H :    0.187960
Sum of atomic charges:   -0.0000000

LOEWDIN ATOMIC CHARGES
----------------------
   0 C :   -0.139691
   1 C :   -0.142676
   2 C :   -0.142813
   3 C :   -0.278026
   4 C :   -0.136824
   5 C :   -0.141664
   6 P :    0.701804
   7 C :   -0.277568
   8 C :   -0.142104
   9 C :   -0.142342
  10 C :   -0.139754
  11 C :   -0.141567
  12 C :   -0.137998
  13 C :   -0.275489
  14 C :   -0.134012
  15 C :   -0.145252
  16 C :   -0.378374
  17 C :   -0.144361
  18 C :   -0.128661
  19 Br:    0.337895
  20 H :    0.147728
  21 H :    0.148487
  22 H :    0.151008
  23 H :    0.158247
  24 H :    0.148453
  25 H :    0.151005
  26 H :    0.148421
  27 H :    0.147699
  28 H :    0.148615
  29 H :    0.157326
  30 H :    0.154266
  31 H :    0.153440
  32 H :    0.153396
  33 H :    0.161384

  Mayer bond orders larger than 0.100000
B(  0-C ,  1-C ) :   1.4269 B(  0-C ,  5-C ) :   1.4384 B(  0-C , 20-H ) :   0.9464
B(  1-C ,  2-C ) :   1.4599 B(  1-C , 21-H ) :   0.9472 B(  2-C ,  3-C ) :   1.3956
B(  2-C , 22-H ) :   0.9361 B(  3-C ,  4-C ) :   1.3409 B(  3-C ,  6-P ) :   0.9336
B(  4-C ,  5-C ) :   1.4596 B(  4-C , 23-H ) :   0.9268 B(  5-C , 24-H ) :   0.9442
B(  6-P ,  7-C ) :   0.9349 B(  6-P , 13-C ) :   0.9324 B(  7-C ,  8-C ) :   1.3993
B(  7-C , 12-C ) :   1.3332 B(  8-C ,  9-C ) :   1.4610 B(  8-C , 25-H ) :   0.9358
B(  9-C , 10-C ) :   1.4261 B(  9-C , 26-H ) :   0.9467 B( 10-C , 11-C ) :   1.4373
B( 10-C , 27-H ) :   0.9467 B( 11-C , 12-C ) :   1.4604 B( 11-C , 28-H ) :   0.9436
B( 12-C , 29-H ) :   0.9273 B( 13-C , 14-C ) :   1.3964 B( 13-C , 18-C ) :   1.3383
B( 14-C , 15-C ) :   1.4569 B( 14-C , 30-H ) :   0.9322 B( 15-C , 16-C ) :   1.3726
B( 15-C , 31-H ) :   0.9288 B( 16-C , 17-C ) :   1.3886 B( 16-C , 19-Br) :   1.0696
B( 17-C , 18-C ) :   1.4621 B( 17-C , 32-H ) :   0.9220 B( 18-C , 33-H ) :   0.9220

Dispersion correction           -0.002148453
FINAL SINGLE POINT ENERGY     -3609.839331198073

DIPOLE MOMENT
-------------

Method             : SCF
Type of density    : Electron Density
Multiplicity       :   1
Irrep              :   0
Energy             : -3609.8371827448204385 Eh
Relativity type    :
Basis              : AO
                                X                 Y                 Z
Electronic contribution:     59.919231157     -22.268362108       4.399400734
Nuclear contribution   :    -60.637768046      22.464829261      -4.056233478
                        -----------------------------------------
Total Dipole Moment    :     -0.718536889       0.196467153       0.343167256
                        -----------------------------------------
Magnitude (a.u.)       :      0.820157527
Magnitude (Debye)      :      2.084674762

Rotational constants in cm-1:             0.011494             0.004554             0.003643
Rotational constants in MHz :           344.573277           136.512008           109.208584

                             ****ORCA TERMINATED NORMALLY****
TOTAL RUN TIME: 0 days 0 hours 2 minutes 16 seconds 182 msec
