                         Program Version 6.0.0  -   RELEASE   -
|  1> ! RI BP86 def2-SVP D3BJ TIGHTSCF Opt
|  2> %pal
|  3> nprocs 6
|  4> end
|  5>
|  6> * xyz 0 1
|  7> C      4.943869   -0.721571    1.317512
|  8> N      4.410580    0.319845    0.440858
|  9> C      5.392785    0.992233   -0.407820
| 10> C      3.088677    0.212880   -0.008016
| 11> C      2.157121   -0.642555    0.602022
| 12> C      0.822963   -0.741861    0.169084
| 13> C      0.349649    0.026396   -0.895185
| 14> C      1.260687    0.893890   -1.507968
| 15> C      2.591800    0.986883   -1.068082
| 16> P     -1.354552   -0.024875   -1.530523
| 17> C     -2.083949   -1.487528   -0.723146
| 18> C     -1.874891   -2.742764   -1.322596
| 19> C     -2.402600   -3.909379   -0.762085
| 20> C     -3.151773   -3.841810    0.408361
| 21> C     -3.372142   -2.609432    1.016771
| 22> C     -2.843344   -1.442417    0.455456
| 23> C     -2.177187    1.383460   -0.715621
| 24> C     -1.616659    2.127037    0.333488
| 25> C     -2.309386    3.198015    0.907964
| 26> C     -3.574082    3.545546    0.442005
| 27> C     -4.147963    2.823463   -0.599533
| 28> C     -3.454944    1.753847   -1.173418
| 29> H      5.989206   -0.523010    1.579958
| 30> H      4.906180   -1.703132    0.832162
| 31> H      4.399391   -0.758131    2.267121
| 32> H      5.489338    0.487276   -1.375344
| 33> H      5.128381    2.043451   -0.564786
| 34> H      6.383269    1.000229    0.061124
| 35> H      2.438406   -1.264471    1.446326
| 36> H      0.171602   -1.430409    0.700984
| 37> H      0.948067    1.524804   -2.338410
| 38> H      3.226699    1.696080   -1.589810
| 39> H     -1.291019   -2.824967   -2.237938
| 40> H     -2.226982   -4.868366   -1.242307
| 41> H     -3.563868   -4.747245    0.845577
| 42> H     -3.956924   -2.550998    1.931242
| 43> H     -3.034180   -0.501890    0.965982
| 44> H     -0.633577    1.888098    0.731387
| 45> H     -1.855468    3.759584    1.720592
| 46> H     -4.110077    4.378306    0.889197
| 47> H     -5.134701    3.090033   -0.968816
| 48> H     -3.928402    1.205453   -1.986228
| 49> **                         ****END OF INPUT****
 Total Charge           Charge          ....    0
 Multiplicity           Mult            ....    1
 Number of Electrons    NEL             ....  162
Dispersion correction           -0.095347259
FINAL SINGLE POINT ENERGY     -1169.688298718479
Dispersion correction             ... done (  0.1 sec)
Dispersion correction           -0.095909371
FINAL SINGLE POINT ENERGY     -1169.695775228796
Dispersion correction             ... done (  0.1 sec)
Dispersion correction           -0.096140309
FINAL SINGLE POINT ENERGY     -1169.697019404003
Dispersion correction             ... done (  0.1 sec)
FINAL SINGLE POINT ENERGY     -1169.697414626918
FINAL SINGLE POINT ENERGY     -1169.697530564704
FINAL SINGLE POINT ENERGY     -1169.697584627527
FINAL SINGLE POINT ENERGY     -1169.697638964547
FINAL SINGLE POINT ENERGY     -1169.697698097411
FINAL SINGLE POINT ENERGY     -1169.697756189736
FINAL SINGLE POINT ENERGY     -1169.697784860116
FINAL SINGLE POINT ENERGY     -1169.697800086937
FINAL SINGLE POINT ENERGY     -1169.697805952773
Dispersion correction             ... done (  0.1 sec)
Dispersion correction           -0.096078247
FINAL SINGLE POINT ENERGY     -1169.697807751944
Dispersion correction             ... done (  0.1 sec)
Dispersion correction           -0.096078212
FINAL SINGLE POINT ENERGY     -1169.697808272796
Dispersion correction             ... done (  0.1 sec)
                    ***********************HURRAY********************

CARTESIAN COORDINATES (ANGSTROEM)
---------------------------------
  C      4.742564   -0.527457    1.523855
  N      4.352988    0.192234    0.326833
  C      5.330181    0.983140   -0.395674
  C      3.046315    0.126139   -0.124784
  C      2.062372   -0.641242    0.564137
  C      0.742683   -0.699096    0.105977
  C      0.334327   -0.009179   -1.055671
  C      1.311145    0.738042   -1.749410
  C      2.632397    0.818144   -1.299960
  P     -1.389501    0.004271   -1.706486
  C     -2.093513   -1.471394   -0.831981
  C     -1.839108   -2.738102   -1.404569
  C     -2.319513   -3.907478   -0.797196
  C     -3.078938   -3.827473    0.383799
  C     -3.347342   -2.572103    0.953288
  C     -2.855648   -1.400363    0.352813
  C     -2.153361    1.381462   -0.727992
  C     -1.477464    2.084058    0.290927
  C     -2.118360    3.128283    0.979059
  C     -3.441161    3.479306    0.663026
  C     -4.121368    2.786417   -0.354366
  C     -3.477857    1.753374   -1.051849
  H      5.815973   -0.354522    1.722101
  H      4.588146   -1.626208    1.423069
  H      4.172559   -0.192154    2.420577
  H      5.471929    0.625493   -1.441381
  H      5.044829    2.058914   -0.447443
  H      6.306418    0.917713    0.118218
  H      2.329228   -1.200242    1.470464
  H      0.009992   -1.298034    0.668284
  H      1.026334    1.277672   -2.667532
  H      3.350811    1.416487   -1.874994
  H     -1.252769   -2.802798   -2.335708
  H     -2.107975   -4.887491   -1.252612
  H     -3.463962   -4.743957    0.856899
  H     -3.941146   -2.501656    1.878149
  H     -3.061560   -0.421332    0.810729
  H     -0.444016    1.805530    0.546676
  H     -1.579370    3.669407    1.772581
  H     -3.941677    4.296410    1.205155
  H     -5.156647    3.059380   -0.611824
  H     -4.008936    1.220403   -1.857645

 Multiplicity           Mult            ....    1
 Number of Electrons    NEL             ....  162
 Basis Dimension        Dim             ....  412

ORBITAL ENERGIES
----------------

  NO   OCC          E(Eh)            E(eV)
   0   2.0000     -76.335957     -2077.2070
   1   2.0000     -14.043453      -382.1418
   2   2.0000      -9.955898      -270.9137
   3   2.0000      -9.955801      -270.9111
   4   2.0000      -9.954486      -270.8753
   5   2.0000      -9.918516      -269.8965
   6   2.0000      -9.917294      -269.8633
   7   2.0000      -9.916576      -269.8438
   8   2.0000      -9.916441      -269.8401
   9   2.0000      -9.916421      -269.8395
  10   2.0000      -9.916313      -269.8366
  11   2.0000      -9.916290      -269.8360
  12   2.0000      -9.916184      -269.8331
  13   2.0000      -9.915931      -269.8262
  14   2.0000      -9.915770      -269.8218
  15   2.0000      -9.914429      -269.7853
  16   2.0000      -9.914343      -269.7830
  17   2.0000      -9.913664      -269.7645
  18   2.0000      -9.912669      -269.7374
  19   2.0000      -9.909808      -269.6596
  20   2.0000      -9.909494      -269.6510
  21   2.0000      -9.906921      -269.5810
  22   2.0000      -6.304058      -171.5421
  23   2.0000      -4.525534      -123.1460
  24   2.0000      -4.525455      -123.1439
  25   2.0000      -4.521946      -123.0484
  26   2.0000      -0.869324       -23.6555
  27   2.0000      -0.769652       -20.9433
  28   2.0000      -0.763049       -20.7636
  29   2.0000      -0.757111       -20.6020
  30   2.0000      -0.689482       -18.7618
  31   2.0000      -0.673969       -18.3396
  32   2.0000      -0.667007       -18.1502
  33   2.0000      -0.663786       -18.0625
  34   2.0000      -0.662061       -18.0156
  35   2.0000      -0.659025       -17.9330
  36   2.0000      -0.650213       -17.6932
  37   2.0000      -0.603091       -16.4109
  38   2.0000      -0.564629       -15.3643
  39   2.0000      -0.537329       -14.6215
  40   2.0000      -0.536088       -14.5877
  41   2.0000      -0.534880       -14.5548
  42   2.0000      -0.525924       -14.3111
  43   2.0000      -0.515008       -14.0141
  44   2.0000      -0.492978       -13.4146
  45   2.0000      -0.476795       -12.9742
  46   2.0000      -0.458443       -12.4749
  47   2.0000      -0.445162       -12.1135
  48   2.0000      -0.439733       -11.9657
  49   2.0000      -0.421699       -11.4750
  50   2.0000      -0.406469       -11.0606
  51   2.0000      -0.400738       -10.9046
  52   2.0000      -0.396288       -10.7835
  53   2.0000      -0.394314       -10.7298
  54   2.0000      -0.393250       -10.7009
  55   2.0000      -0.382515       -10.4088
  56   2.0000      -0.381350       -10.3771
  57   2.0000      -0.372135       -10.1263
  58   2.0000      -0.369474       -10.0539
  59   2.0000      -0.368929       -10.0391
  60   2.0000      -0.367791       -10.0081
  61   2.0000      -0.357747        -9.7348
  62   2.0000      -0.356812        -9.7094
  63   2.0000      -0.342821        -9.3286
  64   2.0000      -0.331711        -9.0263
  65   2.0000      -0.325284        -8.8514
  66   2.0000      -0.323949        -8.8151
  67   2.0000      -0.321306        -8.7432
  68   2.0000      -0.299163        -8.1406
  69   2.0000      -0.298132        -8.1126
  70   2.0000      -0.293868        -7.9966
  71   2.0000      -0.282837        -7.6964
  72   2.0000      -0.280480        -7.6323
  73   2.0000      -0.256918        -6.9911
  74   2.0000      -0.239883        -6.5275
  75   2.0000      -0.230289        -6.2665
  76   2.0000      -0.229186        -6.2365
  77   2.0000      -0.224729        -6.1152
  78   2.0000      -0.221909        -6.0385
  79   2.0000      -0.191927        -5.2226
  80   2.0000      -0.168139        -4.5753
  81   0.0000      -0.050387        -1.3711
  82   0.0000      -0.048177        -1.3110
  83   0.0000      -0.043254        -1.1770
  84   0.0000      -0.033551        -0.9130
  85   0.0000      -0.031839        -0.8664

MULLIKEN ATOMIC CHARGES
-----------------------
   0 C :    0.064891
   1 N :   -0.277703
   2 C :    0.063568
   3 C :    0.184482
   4 C :   -0.066707
   5 C :   -0.001951
   6 C :   -0.152690
   7 C :   -0.000147
   8 C :   -0.072438
   9 P :    0.294451
  10 C :   -0.154102
  11 C :    0.017128
  12 C :   -0.001982
  13 C :    0.001189
  14 C :    0.001919
  15 C :    0.001206
  16 C :   -0.158207
  17 C :    0.003834
  18 C :    0.003756
  19 C :    0.001348
  20 C :   -0.001640
  21 C :    0.008698
  22 H :    0.036213
  23 H :    0.043740
  24 H :    0.042656
  25 H :    0.043643
  26 H :    0.043124
  27 H :    0.036220
  28 H :   -0.026668
  29 H :    0.007722
  30 H :   -0.004021
  31 H :   -0.024585
  32 H :    0.001768
  33 H :    0.001847
  34 H :    0.001263
  35 H :   -0.000313
  36 H :    0.017170
  37 H :    0.017096
  38 H :   -0.001353
  39 H :    0.001285
  40 H :    0.002183
  41 H :    0.002106
Sum of atomic charges:   -0.0000000

LOEWDIN ATOMIC CHARGES
----------------------
   0 C :    0.010866
   1 N :   -0.043307
   2 C :    0.010853
   3 C :    0.021598
   4 C :   -0.076265
   5 C :   -0.025968
   6 C :   -0.209194
   7 C :   -0.027379
   8 C :   -0.076804
   9 P :    0.494631
  10 C :   -0.168276
  11 C :   -0.033746
  12 C :   -0.032790
  13 C :   -0.033684
  14 C :   -0.032659
  15 C :   -0.038874
  16 C :   -0.172192
  17 C :   -0.036114
  18 C :   -0.032505
  19 C :   -0.033612
  20 C :   -0.033363
  21 C :   -0.036160
  22 H :    0.031196
  23 H :    0.025338
  24 H :    0.024854
  25 H :    0.025118
  26 H :    0.025041
  27 H :    0.031254
  28 H :    0.027976
  29 H :    0.034678
  30 H :    0.029795
  31 H :    0.028110
  32 H :    0.030413
  33 H :    0.032249
  34 H :    0.031322
  35 H :    0.031886
  36 H :    0.034838
  37 H :    0.035470
  38 H :    0.031477
  39 H :    0.031304
  40 H :    0.032331
  41 H :    0.030295

  Mayer bond orders larger than 0.100000
B(  0-C ,  1-N ) :   1.0287 B(  0-C , 22-H ) :   0.9618 B(  0-C , 23-H ) :   0.9535
B(  0-C , 24-H ) :   0.9538 B(  1-N ,  2-C ) :   1.0285 B(  1-N ,  3-C ) :   1.1657
B(  2-C , 25-H ) :   0.9538 B(  2-C , 26-H ) :   0.9537 B(  2-C , 27-H ) :   0.9619
B(  3-C ,  4-C ) :   1.2783 B(  3-C ,  8-C ) :   1.2851 B(  4-C ,  5-C ) :   1.3980
B(  4-C , 28-H ) :   0.9731 B(  5-C ,  6-C ) :   1.3419 B(  5-C , 29-H ) :   0.9642
B(  6-C ,  7-C ) :   1.3399 B(  6-C ,  9-P ) :   0.9517 B(  7-C ,  8-C ) :   1.4080
B(  7-C , 30-H ) :   0.9677 B(  8-C , 31-H ) :   0.9739 B(  9-P , 10-C ) :   0.9321
B(  9-P , 16-C ) :   0.9193 B( 10-C , 11-C ) :   1.3620 B( 10-C , 15-C ) :   1.3868
B( 11-C , 12-C ) :   1.4075 B( 11-C , 32-H ) :   0.9707 B( 12-C , 13-C ) :   1.3714
B( 12-C , 33-H ) :   0.9754 B( 13-C , 14-C ) :   1.3816 B( 13-C , 34-H ) :   0.9755
B( 14-C , 15-C ) :   1.3786 B( 14-C , 35-H ) :   0.9744 B( 15-C , 36-H ) :   0.9658
B( 16-C , 17-C ) :   1.3920 B( 16-C , 21-C ) :   1.3579 B( 17-C , 18-C ) :   1.3782
B( 17-C , 37-H ) :   0.9659 B( 18-C , 19-C ) :   1.3806 B( 18-C , 38-H ) :   0.9742
B( 19-C , 20-C ) :   1.3724 B( 19-C , 39-H ) :   0.9754 B( 20-C , 21-C ) :   1.4064
B( 20-C , 40-H ) :   0.9756 B( 21-C , 41-H ) :   0.9715

Dispersion correction           -0.096078963
FINAL SINGLE POINT ENERGY     -1169.697808388260

DIPOLE MOMENT
-------------

Method             : SCF
Type of density    : Electron Density
Multiplicity       :   1
Irrep              :   0
Energy             : -1169.6017294251819294 Eh
Relativity type    :
Basis              : AO
                                X                 Y                 Z
Electronic contribution:    -15.474500845      -0.446466316      -8.438345945
Nuclear contribution   :     16.790101382       0.474812133       9.262020518
                        -----------------------------------------
Total Dipole Moment    :      1.315600537       0.028345817       0.823674572
                        -----------------------------------------
Magnitude (a.u.)       :      1.552432949
Magnitude (Debye)      :      3.945970964

Rotational constants in cm-1:             0.011158             0.005816             0.004433
Rotational constants in MHz :           334.508150           174.371610           132.899679

                             ****ORCA TERMINATED NORMALLY****
TOTAL RUN TIME: 0 days 0 hours 4 minutes 46 seconds 815 msec
