                         Program Version 6.0.0  -   RELEASE   -
|  1> ! RI BP86 def2-SVP D3BJ TIGHTSCF Opt
|  2> %pal
|  3> nprocs 6
|  4> end
|  5>
|  6> * xyz 0 1
|  7> C      4.892537   -3.607543   -0.995109
|  8> O      3.976134   -3.931013    0.042970
|  9> C      3.093354   -2.955299    0.413077
| 10> C      2.237990   -3.304647    1.456809
| 11> C      1.285429   -2.397799    1.933079
| 12> C      1.161046   -1.116490    1.371974
| 13> C      2.028661   -0.778122    0.324110
| 14> C      2.984952   -1.687151   -0.152143
| 15> P     -0.108401   -0.003061    2.056364
| 16> C     -1.642613   -0.508507    1.213556
| 17> C     -1.691982   -1.373650    0.111577
| 18> C     -2.911772   -1.721291   -0.487504
| 19> C     -4.109372   -1.210139    0.006361
| 20> C     -4.075218   -0.349894    1.102661
| 21> C     -2.859161   -0.004386    1.701335
| 22> O     -5.359306   -1.466358   -0.483858
| 23> C     -5.446538   -2.366793   -1.580964
| 24> C      0.284673    1.619420    1.326530
| 25> C      1.282319    2.393860    1.940537
| 26> C      1.635722    3.648761    1.433671
| 27> C      1.000279    4.164988    0.305494
| 28> C      0.006452    3.410755   -0.313267
| 29> C     -0.346991    2.151541    0.193783
| 30> O      1.438601    5.398940   -0.086342
| 31> C      0.794787    5.981163   -1.212648
| 32> H      4.367848   -3.398418   -1.933199
| 33> H      5.537325   -2.770687   -0.706855
| 34> H      5.532818   -4.479597   -1.159441
| 35> H      2.312400   -4.291229    1.907719
| 36> H      0.637075   -2.709573    2.750260
| 37> H      1.980330    0.198096   -0.152017
| 38> H      3.626490   -1.366249   -0.966060
| 39> H     -0.784028   -1.795376   -0.312458
| 40> H     -2.883863   -2.394328   -1.337948
| 41> H     -5.002937    0.055767    1.498864
| 42> H     -2.876071    0.669811    2.556041
| 43> H     -6.503962   -2.475838   -1.840588
| 44> H     -5.066210   -3.357483   -1.310683
| 45> H     -4.927460   -1.969385   -2.459405
| 46> H      1.802331    2.027275    2.824026
| 47> H      2.412839    4.227473    1.927010
| 48> H     -0.518368    3.767038   -1.193403
| 49> H     -1.125898    1.599393   -0.326290
| 50> H     -0.272844    6.133770   -1.022781
| 51> H      0.954822    5.379042   -2.113136
| 52> H      1.245783    6.963214   -1.384756
| 53> **                         ****END OF INPUT****
 Total Charge           Charge          ....    0
 Multiplicity           Mult            ....    1
 Number of Electrons    NEL             ....  186
Dispersion correction           -0.100130963
FINAL SINGLE POINT ENERGY     -1379.148477223694
Dispersion correction             ... done (  0.1 sec)
Dispersion correction           -0.100555241
FINAL SINGLE POINT ENERGY     -1379.155935806307
Dispersion correction             ... done (  0.1 sec)
Dispersion correction           -0.100755933
FINAL SINGLE POINT ENERGY     -1379.157125035465
Dispersion correction             ... done (  0.1 sec)
FINAL SINGLE POINT ENERGY     -1379.157411741493
FINAL SINGLE POINT ENERGY     -1379.157459683173
Dispersion correction             ... done (  0.1 sec)
Dispersion correction           -0.100763330
FINAL SINGLE POINT ENERGY     -1379.157474955360
Dispersion correction             ... done (  0.1 sec)
Dispersion correction           -0.100768859
FINAL SINGLE POINT ENERGY     -1379.157478308893
Dispersion correction             ... done (  0.1 sec)
                    ***********************HURRAY********************

CARTESIAN COORDINATES (ANGSTROEM)
---------------------------------
  C      4.752298   -3.533093   -1.135407
  O      3.914545   -3.867222   -0.042609
  C      3.036021   -2.926510    0.407671
  C      2.232339   -3.304424    1.507980
  C      1.311819   -2.402646    2.044988
  C      1.146226   -1.108660    1.494732
  C      1.952299   -0.744325    0.400007
  C      2.893981   -1.635773   -0.143286
  P     -0.120249   -0.003124    2.265552
  C     -1.637237   -0.505219    1.334770
  C     -1.627879   -1.334788    0.197897
  C     -2.817973   -1.675596   -0.468630
  C     -4.050747   -1.174207   -0.001099
  C     -4.073416   -0.339912    1.140325
  C     -2.884536   -0.022787    1.799760
  O     -5.260346   -1.439267   -0.572137
  C     -5.293670   -2.279555   -1.712474
  C      0.275375    1.607354    1.446480
  C      1.278086    2.415515    2.035092
  C      1.647472    3.636622    1.468383
  C      1.003599    4.098863    0.297357
  C     -0.008003    3.313133   -0.293316
  C     -0.358367    2.078720    0.281454
  O      1.421761    5.306762   -0.177701
  C      0.799413    5.821615   -1.341671
  H      4.164937   -3.297042   -2.051534
  H      5.410881   -2.666060   -0.902683
  H      5.381598   -4.421150   -1.330740
  H      2.362497   -4.312387    1.928529
  H      0.700546   -2.705499    2.910751
  H      1.845302    0.257182   -0.043758
  H      3.507159   -1.312793   -0.995586
  H     -0.671270   -1.725278   -0.181192
  H     -2.769762   -2.329821   -1.349766
  H     -5.045010    0.035245    1.493953
  H     -2.917710    0.618099    2.695890
  H     -6.356009   -2.365670   -2.007170
  H     -4.895610   -3.295493   -1.490814
  H     -4.716101   -1.849464   -2.561839
  H      1.779059    2.072773    2.955096
  H      2.428572    4.266865    1.918318
  H     -0.528997    3.648518   -1.200373
  H     -1.144045    1.471296   -0.192926
  H     -0.293280    5.976217   -1.193878
  H      0.947799    5.155022   -2.221248
  H      1.276634    6.797967   -1.546197

 Multiplicity           Mult            ....    1
 Number of Electrons    NEL             ....  186
 Basis Dimension        Dim             ....  459

ORBITAL ENERGIES
----------------

  NO   OCC          E(Eh)            E(eV)
   0   2.0000     -76.335546     -2077.1958
   1   2.0000     -18.814228      -511.9612
   2   2.0000     -18.814199      -511.9604
   3   2.0000     -18.814113      -511.9580
   4   2.0000      -9.973586      -271.3951
   5   2.0000      -9.973580      -271.3949
   6   2.0000      -9.973512      -271.3931
   7   2.0000      -9.973432      -271.3909
   8   2.0000      -9.973389      -271.3897
   9   2.0000      -9.973287      -271.3869
  10   2.0000      -9.918021      -269.8831
  11   2.0000      -9.918014      -269.8829
  12   2.0000      -9.917924      -269.8804
  13   2.0000      -9.917099      -269.8580
  14   2.0000      -9.917007      -269.8555
  15   2.0000      -9.916957      -269.8541
  16   2.0000      -9.915907      -269.8256
  17   2.0000      -9.915877      -269.8247
  18   2.0000      -9.915796      -269.8225
  19   2.0000      -9.912676      -269.7376
  20   2.0000      -9.912654      -269.7370
  21   2.0000      -9.912580      -269.7350
  22   2.0000      -9.912411      -269.7304
  23   2.0000      -9.912391      -269.7299
  24   2.0000      -9.912321      -269.7280
  25   2.0000      -6.303437      -171.5252
  26   2.0000      -4.524891      -123.1286
  27   2.0000      -4.524888      -123.1285
  28   2.0000      -4.521314      -123.0312
  29   2.0000      -0.973877       -26.5005
  30   2.0000      -0.973852       -26.4999
  31   2.0000      -0.973778       -26.4979
  32   2.0000      -0.771345       -20.9894
  33   2.0000      -0.764008       -20.7897
  34   2.0000      -0.763920       -20.7873
  35   2.0000      -0.696936       -18.9646
  36   2.0000      -0.680117       -18.5069
  37   2.0000      -0.680063       -18.5055
  38   2.0000      -0.668588       -18.1932
  39   2.0000      -0.666729       -18.1426
  40   2.0000      -0.666680       -18.1413
  41   2.0000      -0.639854       -17.4113
  42   2.0000      -0.620041       -16.8722
  43   2.0000      -0.619974       -16.8703
  44   2.0000      -0.563297       -15.3281
  45   2.0000      -0.545510       -14.8441
  46   2.0000      -0.545482       -14.8433
  47   2.0000      -0.543062       -14.7775
  48   2.0000      -0.522784       -14.2257
  49   2.0000      -0.522733       -14.2243
  50   2.0000      -0.495444       -13.4817
  51   2.0000      -0.484184       -13.1753
  52   2.0000      -0.484129       -13.1738
  53   2.0000      -0.480324       -13.0703
  54   2.0000      -0.433953       -11.8085
  55   2.0000      -0.433849       -11.8056
  56   2.0000      -0.433828       -11.8051
  57   2.0000      -0.421100       -11.4587
  58   2.0000      -0.421062       -11.4577
  59   2.0000      -0.420982       -11.4555
  60   2.0000      -0.413681       -11.2568
  61   2.0000      -0.413664       -11.2564
  62   2.0000      -0.393888       -10.7182
  63   2.0000      -0.393083       -10.6963
  64   2.0000      -0.393060       -10.6957
  65   2.0000      -0.376651       -10.2492
  66   2.0000      -0.375600       -10.2206
  67   2.0000      -0.375539       -10.2189
  68   2.0000      -0.371268       -10.1027
  69   2.0000      -0.368112       -10.0168
  70   2.0000      -0.368109       -10.0168
  71   2.0000      -0.359991        -9.7958
  72   2.0000      -0.337991        -9.1972
  73   2.0000      -0.337920        -9.1953
  74   2.0000      -0.336651        -9.1607
  75   2.0000      -0.316624        -8.6158
  76   2.0000      -0.316577        -8.6145
  77   2.0000      -0.316313        -8.6073
  78   2.0000      -0.297797        -8.1035
  79   2.0000      -0.297721        -8.1014
  80   2.0000      -0.287114        -7.8128
  81   2.0000      -0.282089        -7.6760
  82   2.0000      -0.282031        -7.6744
  83   2.0000      -0.281133        -7.6500
  84   2.0000      -0.277797        -7.5592
  85   2.0000      -0.277671        -7.5558
  86   2.0000      -0.232764        -6.3338
  87   2.0000      -0.227346        -6.1864
  88   2.0000      -0.227251        -6.1838
  89   2.0000      -0.220487        -5.9998
  90   2.0000      -0.199105        -5.4179
  91   2.0000      -0.198936        -5.4133
  92   2.0000      -0.174516        -4.7488
  93   0.0000      -0.049454        -1.3457
  94   0.0000      -0.041512        -1.1296
  95   0.0000      -0.041374        -1.1258
  96   0.0000      -0.033840        -0.9208
  97   0.0000      -0.033727        -0.9178

MULLIKEN ATOMIC CHARGES
-----------------------
   0 C :    0.105936
   1 O :   -0.270919
   2 C :    0.187296
   3 C :   -0.021456
   4 C :    0.003781
   5 C :   -0.147089
   6 C :   -0.005513
   7 C :   -0.081155
   8 P :    0.295411
   9 C :   -0.147092
  10 C :   -0.005218
  11 C :   -0.081202
  12 C :    0.187311
  13 C :   -0.021427
  14 C :    0.003212
  15 O :   -0.270951
  16 C :    0.105902
  17 C :   -0.146772
  18 C :    0.003632
  19 C :   -0.021463
  20 C :    0.187305
  21 C :   -0.081427
  22 C :   -0.005836
  23 O :   -0.270980
  24 C :    0.105988
  25 H :    0.039040
  26 H :    0.041380
  27 H :    0.053546
  28 H :   -0.002740
  29 H :    0.003258
  30 H :    0.013983
  31 H :   -0.017442
  32 H :    0.013866
  33 H :   -0.017458
  34 H :   -0.002751
  35 H :    0.003287
  36 H :    0.053532
  37 H :    0.041340
  38 H :    0.039036
  39 H :    0.003191
  40 H :   -0.002759
  41 H :   -0.017564
  42 H :    0.014275
  43 H :    0.041252
  44 H :    0.038947
  45 H :    0.053506
Sum of atomic charges:   -0.0000000

LOEWDIN ATOMIC CHARGES
----------------------
   0 C :    0.056481
   1 O :   -0.079956
   2 C :    0.040565
   3 C :   -0.052776
   4 C :   -0.027315
   5 C :   -0.193873
   6 C :   -0.027874
   7 C :   -0.085477
   8 P :    0.493579
   9 C :   -0.193806
  10 C :   -0.027844
  11 C :   -0.085463
  12 C :    0.040512
  13 C :   -0.052795
  14 C :   -0.027432
  15 O :   -0.079973
  16 C :    0.056450
  17 C :   -0.193724
  18 C :   -0.027369
  19 C :   -0.052729
  20 C :    0.040466
  21 C :   -0.085488
  22 C :   -0.028184
  23 O :   -0.079988
  24 C :    0.056412
  25 H :    0.018726
  26 H :    0.019738
  27 H :    0.032585
  28 H :    0.036843
  29 H :    0.032065
  30 H :    0.035443
  31 H :    0.030540
  32 H :    0.035407
  33 H :    0.030538
  34 H :    0.036825
  35 H :    0.032090
  36 H :    0.032586
  37 H :    0.019716
  38 H :    0.018727
  39 H :    0.032058
  40 H :    0.036819
  41 H :    0.030507
  42 H :    0.035437
  43 H :    0.019689
  44 H :    0.018690
  45 H :    0.032575

  Mayer bond orders larger than 0.100000
B(  0-C ,  1-O ) :   0.9814 B(  0-C , 25-H ) :   0.9576 B(  0-C , 26-H ) :   0.9575
B(  0-C , 27-H ) :   0.9715 B(  1-O ,  2-C ) :   1.1451 B(  2-C ,  3-C ) :   1.3322
B(  2-C ,  7-C ) :   1.2919 B(  3-C ,  4-C ) :   1.4148 B(  3-C , 28-H ) :   0.9786
B(  4-C ,  5-C ) :   1.3266 B(  4-C , 29-H ) :   0.9709 B(  5-C ,  6-C ) :   1.3873
B(  5-C ,  8-P ) :   0.9327 B(  6-C ,  7-C ) :   1.3500 B(  6-C , 30-H ) :   0.9636
B(  7-C , 31-H ) :   0.9773 B(  8-P ,  9-C ) :   0.9324 B(  8-P , 17-C ) :   0.9319
B(  9-C , 10-C ) :   1.3880 B(  9-C , 14-C ) :   1.3264 B( 10-C , 11-C ) :   1.3499
B( 10-C , 32-H ) :   0.9634 B( 11-C , 12-C ) :   1.2922 B( 11-C , 33-H ) :   0.9773
B( 12-C , 13-C ) :   1.3320 B( 12-C , 15-O ) :   1.1451 B( 13-C , 14-C ) :   1.4150
B( 13-C , 34-H ) :   0.9785 B( 14-C , 35-H ) :   0.9709 B( 15-O , 16-C ) :   0.9815
B( 16-C , 36-H ) :   0.9715 B( 16-C , 37-H ) :   0.9575 B( 16-C , 38-H ) :   0.9576
B( 17-C , 18-C ) :   1.3260 B( 17-C , 22-C ) :   1.3886 B( 18-C , 19-C ) :   1.4155
B( 18-C , 39-H ) :   0.9708 B( 19-C , 20-C ) :   1.3319 B( 19-C , 40-H ) :   0.9785
B( 20-C , 21-C ) :   1.2925 B( 20-C , 23-O ) :   1.1449 B( 21-C , 22-C ) :   1.3498
B( 21-C , 41-H ) :   0.9772 B( 22-C , 42-H ) :   0.9633 B( 23-O , 24-C ) :   0.9816
B( 24-C , 43-H ) :   0.9575 B( 24-C , 44-H ) :   0.9576 B( 24-C , 45-H ) :   0.9715

Dispersion correction           -0.100771784
FINAL SINGLE POINT ENERGY     -1379.157479383983

DIPOLE MOMENT
-------------

Method             : SCF
Type of density    : Electron Density
Multiplicity       :   1
Irrep              :   0
Energy             : -1379.0567076000797897 Eh
Relativity type    :
Basis              : AO
                                X                 Y                 Z
Electronic contribution:     -0.825442978      -0.034296082      14.919803695
Nuclear contribution   :      0.927692702       0.034192798     -16.773164620
                        -----------------------------------------
Total Dipole Moment    :      0.102249724      -0.000103284      -1.853360926
                        -----------------------------------------
Magnitude (a.u.)       :      1.856179339
Magnitude (Debye)      :      4.718032931

Rotational constants in cm-1:             0.005344             0.005335             0.003167
Rotational constants in MHz :           160.221416           159.941805            94.929997

                             ****ORCA TERMINATED NORMALLY****
TOTAL RUN TIME: 0 days 0 hours 2 minutes 53 seconds 497 msec
