                         Program Version 6.0.0  -   RELEASE   -
|  1> ! RI BP86 def2-SVP D3BJ TIGHTSCF Opt
|  2> %pal
|  3> nprocs 6
|  4> end
|  5>
|  6> * xyz 0 1
|  7> C     -3.549565    7.158404    0.977452
|  8> C     -2.342711    6.316346    1.361899
|  9> C     -2.704178    4.896877    1.805936
| 10> C     -3.427036    4.041238    0.760729
| 11> C     -2.690958    3.861407   -0.570834
| 12> C     -1.287603    3.254677   -0.476259
| 13> C     -1.276667    1.845562    0.115951
| 14> C      0.118962    1.229956    0.071226
| 15> P      0.194727   -0.438052    0.735811
| 16> O     -0.446497   -0.544017    2.091514
| 17> C      1.938155   -0.872800    0.787822
| 18> C      2.684759   -0.794665   -0.539366
| 19> C      4.101210   -1.374696   -0.481581
| 20> C      5.051723   -0.574939    0.412105
| 21> C      6.459521   -1.176369    0.489062
| 22> C      7.221476   -1.265932   -0.837117
| 23> C      7.397169    0.055523   -1.589258
| 24> C      8.168550    1.103217   -0.801062
| 25> C     -0.603961   -1.490891   -0.480642
| 26> C     -0.545753   -2.977730   -0.147056
| 27> C     -1.160764   -3.873299   -1.225501
| 28> C     -2.640245   -3.626077   -1.534808
| 29> C     -3.556103   -3.825300   -0.324488
| 30> C     -5.028818   -3.688407   -0.720476
| 31> C     -5.988007   -3.782255    0.468298
| 32> C     -5.997363   -5.149909    1.134047
| 33> H     -4.284389    7.185339    1.788389
| 34> H     -3.238139    8.186915    0.768132
| 35> H     -4.039434    6.771573    0.078792
| 36> H     -1.821975    6.813371    2.189515
| 37> H     -1.635509    6.287752    0.525784
| 38> H     -1.788264    4.385752    2.125148
| 39> H     -3.340286    4.957994    2.698230
| 40> H     -4.412425    4.476970    0.555361
| 41> H     -3.630344    3.056868    1.199368
| 42> H     -2.619145    4.829469   -1.080545
| 43> H     -3.307086    3.226427   -1.220191
| 44> H     -0.629896    3.908727    0.107113
| 45> H     -0.866623    3.219532   -1.489074
| 46> H     -1.620831    1.865234    1.155397
| 47> H     -1.974732    1.206682   -0.435742
| 48> H      0.810258    1.856357    0.646541
| 49> H      0.481875    1.214577   -0.962208
| 50> H      2.409962   -0.202472    1.514177
| 51> H      2.018714   -1.885880    1.196660
| 52> H      2.723908    0.245727   -0.881402
| 53> H      2.125808   -1.349333   -1.300418
| 54> H      4.491442   -1.394896   -1.505203
| 55> H      4.056817   -2.415527   -0.139007
| 56> H      4.654568   -0.541209    1.432780
| 57> H      5.102666    0.463249    0.066197
| 58> H      6.388893   -2.186388    0.913109
| 59> H      7.048768   -0.591739    1.205900
| 60> H      8.212968   -1.690838   -0.634408
| 61> H      6.720436   -1.982122   -1.499091
| 62> H      7.940287   -0.148410   -2.520440
| 63> H      6.423059    0.461102   -1.883563
| 64> H      7.613852    1.428819    0.083408
| 65> H      9.139941    0.715152   -0.477620
| 66> H      8.347040    1.985556   -1.423942
| 67> H     -1.648894   -1.170874   -0.543846
| 68> H     -0.160001   -1.310121   -1.465016
| 69> H     -1.024916   -3.157623    0.821802
| 70> H      0.502657   -3.272844   -0.020081
| 71> H     -1.033199   -4.919108   -0.919946
| 72> H     -0.588975   -3.752958   -2.154112
| 73> H     -2.940596   -4.321883   -2.328658
| 74> H     -2.776630   -2.618192   -1.943657
| 75> H     -3.322737   -3.084770    0.448366
| 76> H     -3.372763   -4.816764    0.104137
| 77> H     -5.179740   -2.716495   -1.206975
| 78> H     -5.286065   -4.455523   -1.460851
| 79> H     -5.738111   -3.015863    1.211118
| 80> H     -7.001813   -3.561235    0.114042
| 81> H     -6.768932   -5.183820    1.910138
| 82> H     -5.038092   -5.370626    1.611533
| 83> H     -6.213399   -5.939499    0.407553
| 84> **                         ****END OF INPUT****
 Total Charge           Charge          ....    0
 Multiplicity           Mult            ....    1
 Number of Electrons    NEL             ....  218
Dispersion correction           -0.127396089
FINAL SINGLE POINT ENERGY     -1361.167376441298
Dispersion correction             ... done (  0.1 sec)
Dispersion correction           -0.126358193
FINAL SINGLE POINT ENERGY     -1361.179994147141
Dispersion correction             ... done (  0.1 sec)
Dispersion correction           -0.126362747
FINAL SINGLE POINT ENERGY     -1361.181952619259
Dispersion correction             ... done (  0.1 sec)
FINAL SINGLE POINT ENERGY     -1361.182799033370
FINAL SINGLE POINT ENERGY     -1361.183382219790
FINAL SINGLE POINT ENERGY     -1361.184048741865
FINAL SINGLE POINT ENERGY     -1361.184308759709
FINAL SINGLE POINT ENERGY     -1361.184839262823
FINAL SINGLE POINT ENERGY     -1361.185207938008
FINAL SINGLE POINT ENERGY     -1361.186075065910
FINAL SINGLE POINT ENERGY     -1361.186609197965
FINAL SINGLE POINT ENERGY     -1361.186664137765
FINAL SINGLE POINT ENERGY     -1361.186672087326
FINAL SINGLE POINT ENERGY     -1361.186678774230
FINAL SINGLE POINT ENERGY     -1361.186681233170
FINAL SINGLE POINT ENERGY     -1361.186682855331
FINAL SINGLE POINT ENERGY     -1361.186684265537
Dispersion correction             ... done (  0.1 sec)
Dispersion correction           -0.134675528
FINAL SINGLE POINT ENERGY     -1361.186685091057
Dispersion correction             ... done (  0.1 sec)
Dispersion correction           -0.134689671
FINAL SINGLE POINT ENERGY     -1361.186685711187
Dispersion correction             ... done (  0.1 sec)
                    ***********************HURRAY********************

CARTESIAN COORDINATES (ANGSTROEM)
---------------------------------
  C     -4.522567    5.272213    1.668344
  C     -3.275082    4.401937    1.857794
  C     -3.476732    2.919503    1.498636
  C     -3.888997    2.642715    0.043227
  C     -2.922147    3.180343   -1.027729
  C     -1.459805    2.732322   -0.868426
  C     -1.283557    1.211460   -0.790192
  C      0.183041    0.765300   -0.688841
  P      0.279482   -0.981859   -0.111780
  O     -0.576727   -1.225438    1.127331
  C      2.057350   -1.348074    0.194538
  C      3.043463   -1.036061   -0.939011
  C      4.490807   -1.464788   -0.642237
  C      5.154852   -0.694678    0.506511
  C      6.588221   -1.148553    0.829810
  C      7.595352   -1.037714   -0.329912
  C      7.724604    0.360603   -0.958140
  C      8.166421    1.454268    0.020479
  C     -0.242209   -2.010348   -1.554536
  C     -0.667967   -3.429112   -1.117808
  C     -1.980222   -3.913225   -1.767157
  C     -3.172311   -2.956328   -1.579746
  C     -3.436140   -2.541210   -0.127103
  C     -4.542848   -1.488367    0.012030
  C     -4.670850   -0.897501    1.425498
  C     -5.086960   -1.908897    2.499126
  H     -5.380511    4.877112    2.253098
  H     -4.344613    6.315668    1.999853
  H     -4.841245    5.315347    0.606229
  H     -2.940433    4.465335    2.916160
  H     -2.436964    4.822976    1.258731
  H     -2.543168    2.361678    1.731037
  H     -4.250126    2.485095    2.170068
  H     -4.898602    3.066745   -0.147724
  H     -4.007825    1.545771   -0.081532
  H     -2.953551    4.291907   -1.038855
  H     -3.292373    2.862450   -2.027851
  H     -1.023416    3.187386    0.048820
  H     -0.860841    3.134971   -1.715254
  H     -1.817082    0.813106    0.098046
  H     -1.764750    0.735190   -1.673739
  H      0.714343    1.368042    0.080336
  H      0.733374    0.894900   -1.645676
  H      2.301304   -0.793504    1.125551
  H      2.090258   -2.426239    0.466352
  H      3.027505    0.053980   -1.161142
  H      2.706313   -1.541279   -1.869993
  H      5.089179   -1.337412   -1.569801
  H      4.511125   -2.555594   -0.416577
  H      4.541003   -0.797539    1.427207
  H      5.145871    0.392274    0.264312
  H      6.562348   -2.205901    1.175300
  H      6.957971   -0.563009    1.699337
  H      8.593611   -1.361072    0.040720
  H      7.326914   -1.765493   -1.126677
  H      8.450795    0.303187   -1.798001
  H      6.757679    0.651844   -1.426159
  H      7.423495    1.612647    0.829356
  H      9.130958    1.194086    0.506229
  H      8.303742    2.427427   -0.493489
  H     -1.101327   -1.463789   -1.995106
  H      0.551469   -2.011088   -2.330691
  H     -0.796227   -3.431769   -0.014387
  H      0.145042   -4.152169   -1.337218
  H     -2.232533   -4.905291   -1.332192
  H     -1.822209   -4.087262   -2.855015
  H     -4.082060   -3.425222   -2.016152
  H     -3.010156   -2.036506   -2.188763
  H     -2.509056   -2.126496    0.326201
  H     -3.685806   -3.446649    0.470119
  H     -4.328556   -0.657798   -0.699285
  H     -5.522539   -1.911507   -0.310865
  H     -3.696065   -0.442106    1.708983
  H     -5.407096   -0.064038    1.402412
  H     -5.212082   -1.421491    3.487725
  H     -4.329988   -2.710064    2.623101
  H     -6.051572   -2.397348    2.242253

 Multiplicity           Mult            ....    1
 Number of Electrons    NEL             ....  218
 Basis Dimension        Dim             ....  623

ORBITAL ENERGIES
----------------

  NO   OCC          E(Eh)            E(eV)
   0   2.0000     -76.404106     -2079.0614
   1   2.0000     -18.712077      -509.1815
   2   2.0000      -9.929984      -270.2086
   3   2.0000      -9.923711      -270.0379
   4   2.0000      -9.923196      -270.0239
   5   2.0000      -9.919603      -269.9261
   6   2.0000      -9.919562      -269.9250
   7   2.0000      -9.916496      -269.8416
   8   2.0000      -9.915368      -269.8109
   9   2.0000      -9.914218      -269.7796
  10   2.0000      -9.913496      -269.7599
  11   2.0000      -9.913143      -269.7503
  12   2.0000      -9.912324      -269.7281
  13   2.0000      -9.911697      -269.7110
  14   2.0000      -9.908828      -269.6329
  15   2.0000      -9.908177      -269.6152
  16   2.0000      -9.908063      -269.6121
  17   2.0000      -9.906032      -269.5568
  18   2.0000      -9.903083      -269.4766
  19   2.0000      -9.902184      -269.4521
  20   2.0000      -9.902024      -269.4478
  21   2.0000      -9.901965      -269.4462
  22   2.0000      -9.895202      -269.2621
  23   2.0000      -9.895008      -269.2569
  24   2.0000      -9.891606      -269.1643
  25   2.0000      -9.886901      -269.0362
  26   2.0000      -6.363710      -173.1653
  27   2.0000      -4.584820      -124.7593
  28   2.0000      -4.584788      -124.7584
  29   2.0000      -4.584739      -124.7571
  30   2.0000      -0.844569       -22.9819
  31   2.0000      -0.742224       -20.1969
  32   2.0000      -0.734387       -19.9837
  33   2.0000      -0.727064       -19.7844
  34   2.0000      -0.718298       -19.5459
  35   2.0000      -0.708086       -19.2680
  36   2.0000      -0.700024       -19.0486
  37   2.0000      -0.681828       -18.5535
  38   2.0000      -0.671022       -18.2594
  39   2.0000      -0.662371       -18.0240
  40   2.0000      -0.638576       -17.3765
  41   2.0000      -0.626093       -17.0369
  42   2.0000      -0.619688       -16.8626
  43   2.0000      -0.599248       -16.3064
  44   2.0000      -0.586329       -15.9548
  45   2.0000      -0.577467       -15.7137
  46   2.0000      -0.556682       -15.1481
  47   2.0000      -0.550359       -14.9760
  48   2.0000      -0.541988       -14.7482
  49   2.0000      -0.523752       -14.2520
  50   2.0000      -0.515231       -14.0201
  51   2.0000      -0.494803       -13.4643
  52   2.0000      -0.487358       -13.2617
  53   2.0000      -0.484862       -13.1938
  54   2.0000      -0.474421       -12.9097
  55   2.0000      -0.469592       -12.7783
  56   2.0000      -0.434021       -11.8103
  57   2.0000      -0.431482       -11.7412
  58   2.0000      -0.428524       -11.6607
  59   2.0000      -0.421543       -11.4708
  60   2.0000      -0.416275       -11.3274
  61   2.0000      -0.414540       -11.2802
  62   2.0000      -0.407116       -11.0782
  63   2.0000      -0.404710       -11.0127
  64   2.0000      -0.397355       -10.8126
  65   2.0000      -0.389803       -10.6071
  66   2.0000      -0.387585       -10.5467
  67   2.0000      -0.383854       -10.4452
  68   2.0000      -0.377753       -10.2792
  69   2.0000      -0.374780       -10.1983
  70   2.0000      -0.371119       -10.0987
  71   2.0000      -0.366464        -9.9720
  72   2.0000      -0.363360        -9.8875
  73   2.0000      -0.358254        -9.7486
  74   2.0000      -0.354982        -9.6596
  75   2.0000      -0.350294        -9.5320
  76   2.0000      -0.346489        -9.4284
  77   2.0000      -0.342588        -9.3223
  78   2.0000      -0.341242        -9.2857
  79   2.0000      -0.335297        -9.1239
  80   2.0000      -0.332150        -9.0383
  81   2.0000      -0.327640        -8.9155
  82   2.0000      -0.324441        -8.8285
  83   2.0000      -0.319025        -8.6811
  84   2.0000      -0.317242        -8.6326
  85   2.0000      -0.312782        -8.5112
  86   2.0000      -0.308431        -8.3928
  87   2.0000      -0.304868        -8.2959
  88   2.0000      -0.303174        -8.2498
  89   2.0000      -0.301313        -8.1992
  90   2.0000      -0.300105        -8.1663
  91   2.0000      -0.295729        -8.0472
  92   2.0000      -0.292879        -7.9696
  93   2.0000      -0.290436        -7.9032
  94   2.0000      -0.286095        -7.7850
  95   2.0000      -0.282067        -7.6754
  96   2.0000      -0.280363        -7.6291
  97   2.0000      -0.279629        -7.6091
  98   2.0000      -0.277641        -7.5550
  99   2.0000      -0.277095        -7.5401
 100   2.0000      -0.271767        -7.3952
 101   2.0000      -0.270129        -7.3506
 102   2.0000      -0.266263        -7.2454
 103   2.0000      -0.264584        -7.1997
 104   2.0000      -0.263212        -7.1624
 105   2.0000      -0.260959        -7.1011
 106   2.0000      -0.257203        -6.9989
 107   2.0000      -0.212668        -5.7870
 108   2.0000      -0.208281        -5.6676
 109   0.0000       0.014523         0.3952
 110   0.0000       0.021052         0.5729
 111   0.0000       0.027732         0.7546
 112   0.0000       0.032477         0.8837
 113   0.0000       0.037280         1.0144

MULLIKEN ATOMIC CHARGES
-----------------------
   0 C :   -0.065530
   1 C :   -0.051515
   2 C :   -0.036282
   3 C :   -0.052978
   4 C :   -0.008262
   5 C :   -0.016168
   6 C :   -0.065348
   7 C :   -0.133493
   8 P :    0.440804
   9 O :   -0.458706
  10 C :   -0.141149
  11 C :   -0.020202
  12 C :   -0.021371
  13 C :   -0.049282
  14 C :   -0.012252
  15 C :   -0.037427
  16 C :   -0.057220
  17 C :   -0.066011
  18 C :   -0.145851
  19 C :   -0.021549
  20 C :    0.002097
  21 C :   -0.036018
  22 C :   -0.074006
  23 C :   -0.027562
  24 C :   -0.059900
  25 C :   -0.055385
  26 H :    0.026680
  27 H :    0.027936
  28 H :    0.031502
  29 H :    0.018618
  30 H :    0.017609
  31 H :    0.023512
  32 H :    0.017715
  33 H :    0.013248
  34 H :    0.029521
  35 H :    0.015665
  36 H :    0.010720
  37 H :    0.016343
  38 H :    0.008802
  39 H :    0.060573
  40 H :    0.027335
  41 H :    0.049625
  42 H :    0.044777
  43 H :    0.070154
  44 H :    0.055153
  45 H :    0.024471
  46 H :    0.022581
  47 H :    0.022209
  48 H :    0.012982
  49 H :    0.020484
  50 H :    0.014414
  51 H :    0.013326
  52 H :    0.018695
  53 H :    0.015156
  54 H :    0.019179
  55 H :    0.020102
  56 H :    0.018577
  57 H :    0.032836
  58 H :    0.028141
  59 H :    0.030606
  60 H :    0.039694
  61 H :    0.039884
  62 H :    0.052872
  63 H :    0.018218
  64 H :    0.016243
  65 H :    0.010129
  66 H :    0.008989
  67 H :    0.003015
  68 H :    0.043625
  69 H :    0.011303
  70 H :   -0.000765
  71 H :    0.002430
  72 H :    0.046766
  73 H :    0.018572
  74 H :    0.023703
  75 H :    0.038074
  76 H :    0.018565
Sum of atomic charges:   -0.0000000

LOEWDIN ATOMIC CHARGES
----------------------
   0 C :   -0.076700
   1 C :   -0.053767
   2 C :   -0.048756
   3 C :   -0.051220
   4 C :   -0.046738
   5 C :   -0.046275
   6 C :   -0.056913
   7 C :   -0.190643
   8 P :    0.875759
   9 O :   -0.499025
  10 C :   -0.194321
  11 C :   -0.054699
  12 C :   -0.044659
  13 C :   -0.049930
  14 C :   -0.046915
  15 C :   -0.050029
  16 C :   -0.054196
  17 C :   -0.076510
  18 C :   -0.195716
  19 C :   -0.056259
  20 C :   -0.043887
  21 C :   -0.048223
  22 C :   -0.057480
  23 C :   -0.045149
  24 C :   -0.053786
  25 C :   -0.075275
  26 H :    0.026916
  27 H :    0.028723
  28 H :    0.024614
  29 H :    0.027864
  30 H :    0.021416
  31 H :    0.026595
  32 H :    0.027604
  33 H :    0.025665
  34 H :    0.027984
  35 H :    0.024582
  36 H :    0.026043
  37 H :    0.023334
  38 H :    0.024272
  39 H :    0.030228
  40 H :    0.023896
  41 H :    0.036269
  42 H :    0.028686
  43 H :    0.037718
  44 H :    0.039654
  45 H :    0.026259
  46 H :    0.025756
  47 H :    0.026521
  48 H :    0.025254
  49 H :    0.026622
  50 H :    0.022473
  51 H :    0.027363
  52 H :    0.026002
  53 H :    0.026917
  54 H :    0.023612
  55 H :    0.028278
  56 H :    0.021871
  57 H :    0.025117
  58 H :    0.027499
  59 H :    0.029982
  60 H :    0.031715
  61 H :    0.029578
  62 H :    0.027389
  63 H :    0.026994
  64 H :    0.027960
  65 H :    0.022424
  66 H :    0.025172
  67 H :    0.014952
  68 H :    0.023655
  69 H :    0.022267
  70 H :    0.017278
  71 H :    0.018019
  72 H :    0.031366
  73 H :    0.022043
  74 H :    0.027526
  75 H :    0.028095
  76 H :    0.023294

  Mayer bond orders larger than 0.100000
B(  0-C ,  1-C ) :   1.1101 B(  0-C , 26-H ) :   0.9661 B(  0-C , 27-H ) :   0.9619
B(  0-C , 28-H ) :   0.9629 B(  1-C ,  2-C ) :   1.0950 B(  1-C , 29-H ) :   0.9360
B(  1-C , 30-H ) :   0.9308 B(  2-C ,  3-C ) :   1.0982 B(  2-C , 31-H ) :   0.9225
B(  2-C , 32-H ) :   0.9284 B(  3-C ,  4-C ) :   1.0912 B(  3-C , 33-H ) :   0.9228
B(  3-C , 34-H ) :   0.9177 B(  4-C ,  5-C ) :   1.0965 B(  4-C , 35-H ) :   0.9246
B(  4-C , 36-H ) :   0.9263 B(  5-C ,  6-C ) :   1.0919 B(  5-C , 37-H ) :   0.9215
B(  5-C , 38-H ) :   0.9286 B(  6-C ,  7-C ) :   1.0630 B(  6-C , 39-H ) :   0.9100
B(  6-C , 40-H ) :   0.9291 B(  7-C ,  8-P ) :   0.9262 B(  7-C , 41-H ) :   0.9193
B(  7-C , 42-H ) :   0.9122 B(  8-P ,  9-O ) :   1.7914 B(  8-P , 10-C ) :   0.9186
B(  8-P , 18-C ) :   0.9377 B( 10-C , 11-C ) :   1.0314 B( 10-C , 43-H ) :   0.9157
B( 10-C , 44-H ) :   0.9237 B( 11-C , 12-C ) :   1.0969 B( 11-C , 45-H ) :   0.9275
B( 11-C , 46-H ) :   0.9306 B( 12-C , 13-C ) :   1.0868 B( 12-C , 47-H ) :   0.9230
B( 12-C , 48-H ) :   0.9315 B( 13-C , 14-C ) :   1.0945 B( 13-C , 49-H ) :   0.9270
B( 13-C , 50-H ) :   0.9265 B( 14-C , 15-C ) :   1.0908 B( 14-C , 51-H ) :   0.9272
B( 14-C , 52-H ) :   0.9297 B( 15-C , 16-C ) :   1.0941 B( 15-C , 53-H ) :   0.9307
B( 15-C , 54-H ) :   0.9310 B( 16-C , 17-C ) :   1.1110 B( 16-C , 55-H ) :   0.9361
B( 16-C , 56-H ) :   0.9333 B( 17-C , 57-H ) :   0.9625 B( 17-C , 58-H ) :   0.9664
B( 17-C , 59-H ) :   0.9621 B( 18-C , 19-C ) :   1.0417 B( 18-C , 60-H ) :   0.9203
B( 18-C , 61-H ) :   0.9095 B( 19-C , 20-C ) :   1.0965 B( 19-C , 62-H ) :   0.9261
B( 19-C , 63-H ) :   0.9323 B( 20-C , 21-C ) :   1.0941 B( 20-C , 64-H ) :   0.9276
B( 20-C , 65-H ) :   0.9334 B( 21-C , 22-C ) :   1.0841 B( 21-C , 66-H ) :   0.9228
B( 21-C , 67-H ) :   0.9239 B( 22-C , 23-C ) :   1.0846 B( 22-C , 68-H ) :   0.9044
B( 22-C , 69-H ) :   0.9268 B( 23-C , 24-C ) :   1.1029 B( 23-C , 70-H ) :   0.9241
B( 23-C , 71-H ) :   0.9295 B( 24-C , 25-C ) :   1.1067 B( 24-C , 72-H ) :   0.9316
B( 24-C , 73-H ) :   0.9299 B( 25-C , 74-H ) :   0.9609 B( 25-C , 75-H ) :   0.9647
B( 25-C , 76-H ) :   0.9651

Dispersion correction           -0.134692621
FINAL SINGLE POINT ENERGY     -1361.186686129931

DIPOLE MOMENT
-------------

Method             : SCF
Type of density    : Electron Density
Multiplicity       :   1
Irrep              :   0
Energy             : -1361.0519935088946113 Eh
Relativity type    :
Basis              : AO
                                X                 Y                 Z
Electronic contribution:      1.964732579     -10.569129904      -1.770866304
Nuclear contribution   :     -0.801163746      10.860797212       0.766670342
                        -----------------------------------------
Total Dipole Moment    :      1.163568833       0.291667308      -1.004195961
                        -----------------------------------------
Magnitude (a.u.)       :      1.564407804
Magnitude (Debye)      :      3.976408627

Rotational constants in cm-1:             0.006514             0.002380             0.001916
Rotational constants in MHz :           195.281471            71.365266            57.431078

                             ****ORCA TERMINATED NORMALLY****
TOTAL RUN TIME: 0 days 0 hours 15 minutes 32 seconds 643 msec
