                         Program Version 6.0.0  -   RELEASE   -
|  1> ! RIJCOSX M062X def2-TZVP D3ZERO NormalSCF
|  2> %pal
|  3> nprocs 6
|  4> end
|  5>
|  6> * xyz 0 1
|  7>   C          -0.66766435728900     -4.26607933236321      0.53676542826039
|  8>   C          -1.14317435478544     -3.95261109387767     -0.74854191848177
|  9>   C          -0.93131840114422     -2.67333864133832     -1.28466151498591
| 10>   C          -0.24529604497665     -1.70088435374539     -0.52927004285834
| 11>   C           0.24667975835677     -2.02086771029054      0.75212104242341
| 12>   C           0.03017960685691     -3.30219769405580      1.28451295418263
| 13>   P          -0.04670840470804     -0.05518585051538     -1.30777958798704
| 14>   O          -0.05948238328867     -0.10252191624860     -2.82577411376273
| 15>   C          -1.36962741864958      0.99521645001621     -0.60004576927342
| 16>   C          -1.93580162359582      0.78330628245523      0.67298480532856
| 17>   C          -2.92635520388824      1.65665724957929      1.15145970676797
| 18>   C          -3.35810380424055      2.73353092475947      0.35853729785930
| 19>   C          -2.80641572097705      2.93408492412709     -0.91898909578374
| 20>   C          -1.81561320308365      2.06590632817253     -1.40152923879196
| 21>   C           1.51617269421524      0.62168858496679     -0.63030351661401
| 22>   C           2.66621276531220      0.47386199878496     -1.43122594542491
| 23>   C           3.90892252526986      0.94360377344622     -0.98333075822893
| 24>   C           3.99014931998469      1.56944826559149      0.27285871465336
| 25>   C           2.85115900414130      1.74291836968373      1.07749782057686
| 26>   C           1.61289947685096      1.26961879675411      0.61691773088256
| 27>   Br          5.67656803508076      2.20927960332526      0.89195934350588
| 28>   H          -0.83306347196034     -5.27104734876725      0.95444311521960
| 29>   H          -1.67740513558837     -4.71244986871662     -1.33934373191897
| 30>   H          -1.27784925390786     -2.41277959712538     -2.29672534370743
| 31>   H           0.81576576838188     -1.27507144147665      1.32826863531296
| 32>   H           0.41692065970731     -3.55237841292647      2.28427465933548
| 33>   H          -1.61632918804142     -0.07495461493964      1.28424813454616
| 34>   H          -3.37006718589540      1.48958792475808      2.14491533234785
| 35>   H          -4.13670875879004      3.41485679516368      0.73452052461507
| 36>   H          -3.15546780424239      3.76925466659626     -1.54545505886324
| 37>   H          -1.38449206262253      2.19395081711162     -2.40652243446340
| 38>   H           2.57048977804315     -0.00222807372085     -2.41953241207909
| 39>   H           4.80908112827963      0.83174261247900     -1.60418080086792
| 40>   H           2.93259556848038      2.25078122906380      2.04883599216662
| 41>   H           0.71314669271422      1.42530135327297      1.23215504610814
| 42> **                         ****END OF INPUT****

CARTESIAN COORDINATES (ANGSTROEM)
---------------------------------
  C     -0.667664   -4.266079    0.536765
  C     -1.143174   -3.952611   -0.748542
  C     -0.931318   -2.673339   -1.284662
  C     -0.245296   -1.700884   -0.529270
  C      0.246680   -2.020868    0.752121
  C      0.030180   -3.302198    1.284513
  P     -0.046708   -0.055186   -1.307780
  O     -0.059482   -0.102522   -2.825774
  C     -1.369627    0.995216   -0.600046
  C     -1.935802    0.783306    0.672985
  C     -2.926355    1.656657    1.151460
  C     -3.358104    2.733531    0.358537
  C     -2.806416    2.934085   -0.918989
  C     -1.815613    2.065906   -1.401529
  C      1.516173    0.621689   -0.630304
  C      2.666213    0.473862   -1.431226
  C      3.908923    0.943604   -0.983331
  C      3.990149    1.569448    0.272859
  C      2.851159    1.742918    1.077498
  C      1.612899    1.269619    0.616918
  Br     5.676568    2.209280    0.891959
  H     -0.833063   -5.271047    0.954443
  H     -1.677405   -4.712450   -1.339344
  H     -1.277849   -2.412780   -2.296725
  H      0.815766   -1.275071    1.328269
  H      0.416921   -3.552378    2.284275
  H     -1.616329   -0.074955    1.284248
  H     -3.370067    1.489588    2.144915
  H     -4.136709    3.414857    0.734521
  H     -3.155468    3.769255   -1.545455
  H     -1.384492    2.193951   -2.406522
  H      2.570490   -0.002228   -2.419532
  H      4.809081    0.831743   -1.604181
  H      2.932596    2.250781    2.048836
  H      0.713147    1.425301    1.232155

 Total Charge           Charge          ....    0
 Multiplicity           Mult            ....    1
 Number of Electrons    NEL             ....  180
 Basis Dimension        Dim             ....  758

ORBITAL ENERGIES
----------------

  NO   OCC          E(Eh)            E(eV)
   0   2.0000    -485.384648    -13207.9878
   1   2.0000     -78.103250     -2125.2975
   2   2.0000     -63.366379     -1724.2868
   3   2.0000     -57.184844     -1556.0787
   4   2.0000     -57.183245     -1556.0352
   5   2.0000     -57.183229     -1556.0348
   6   2.0000     -19.572086      -532.5835
   7   2.0000     -10.619414      -288.9690
   8   2.0000     -10.575583      -287.7762
   9   2.0000     -10.573305      -287.7143
  10   2.0000     -10.571391      -287.6622
  11   2.0000     -10.570226      -287.6305
  12   2.0000     -10.568370      -287.5800
  13   2.0000     -10.567972      -287.5691
  14   2.0000     -10.567661      -287.5607
  15   2.0000     -10.564718      -287.4806
  16   2.0000     -10.564618      -287.4779
  17   2.0000     -10.564255      -287.4680
  18   2.0000     -10.564252      -287.4679
  19   2.0000     -10.562838      -287.4294
  20   2.0000     -10.562803      -287.4285
  21   2.0000     -10.562505      -287.4204
  22   2.0000     -10.562434      -287.4184
  23   2.0000     -10.560674      -287.3705
  24   2.0000     -10.560646      -287.3698
  25   2.0000      -9.033024      -245.8011
  26   2.0000      -6.909433      -188.0152
  27   2.0000      -6.856905      -186.5859
  28   2.0000      -6.848472      -186.3564
  29   2.0000      -6.848164      -186.3480
  30   2.0000      -5.026579      -136.7802
  31   2.0000      -5.026543      -136.7792
  32   2.0000      -5.024854      -136.7332
  33   2.0000      -2.890886       -78.6650
  34   2.0000      -2.887899       -78.5837
  35   2.0000      -2.887545       -78.5741
  36   2.0000      -2.879368       -78.3516
  37   2.0000      -2.879362       -78.3514
  38   2.0000      -1.068142       -29.0656
  39   2.0000      -0.986385       -26.8409
  40   2.0000      -0.970162       -26.3995
  41   2.0000      -0.966829       -26.3088
  42   2.0000      -0.909368       -24.7452
  43   2.0000      -0.868880       -23.6434
  44   2.0000      -0.863335       -23.4925
  45   2.0000      -0.853830       -23.2339
  46   2.0000      -0.853133       -23.2149
  47   2.0000      -0.849648       -23.1201
  48   2.0000      -0.825761       -22.4701
  49   2.0000      -0.736464       -20.0402
  50   2.0000      -0.712759       -19.3952
  51   2.0000      -0.700973       -19.0744
  52   2.0000      -0.698942       -19.0192
  53   2.0000      -0.689159       -18.7530
  54   2.0000      -0.684671       -18.6309
  55   2.0000      -0.644714       -17.5436
  56   2.0000      -0.603349       -16.4180
  57   2.0000      -0.600194       -16.3321
  58   2.0000      -0.572188       -15.5700
  59   2.0000      -0.548524       -14.9261
  60   2.0000      -0.539739       -14.6870
  61   2.0000      -0.537008       -14.6127
  62   2.0000      -0.529646       -14.4124
  63   2.0000      -0.527857       -14.3637
  64   2.0000      -0.523045       -14.2328
  65   2.0000      -0.508537       -13.8380
  66   2.0000      -0.499643       -13.5960
  67   2.0000      -0.498488       -13.5646
  68   2.0000      -0.494671       -13.4607
  69   2.0000      -0.487928       -13.2772
  70   2.0000      -0.467400       -12.7186
  71   2.0000      -0.458069       -12.4647
  72   2.0000      -0.450126       -12.2486
  73   2.0000      -0.447026       -12.1642
  74   2.0000      -0.430971       -11.7273
  75   2.0000      -0.422860       -11.5066
  76   2.0000      -0.417460       -11.3597
  77   2.0000      -0.412604       -11.2275
  78   2.0000      -0.411610       -11.2005
  79   2.0000      -0.411242       -11.1905
  80   2.0000      -0.385745       -10.4966
  81   2.0000      -0.357485        -9.7277
  82   2.0000      -0.345275        -9.3954
  83   2.0000      -0.343072        -9.3355
  84   2.0000      -0.330285        -8.9875
  85   2.0000      -0.324402        -8.8274
  86   2.0000      -0.322364        -8.7720
  87   2.0000      -0.320338        -8.7168
  88   2.0000      -0.318151        -8.6573
  89   2.0000      -0.305631        -8.3166
  90   0.0000      -0.021097        -0.5741
  91   0.0000      -0.016686        -0.4540
  92   0.0000      -0.007660        -0.2084
  93   0.0000      -0.003719        -0.1012
  94   0.0000       0.004506         0.1226

MULLIKEN ATOMIC CHARGES
-----------------------
   0 C :   -0.133943
   1 C :   -0.137249
   2 C :   -0.147226
   3 C :   -0.070015
   4 C :   -0.200807
   5 C :   -0.148622
   6 P :    0.636169
   7 O :   -0.596123
   8 C :   -0.078615
   9 C :   -0.193943
  10 C :   -0.149632
  11 C :   -0.133364
  12 C :   -0.135938
  13 C :   -0.147883
  14 C :   -0.093335
  15 C :   -0.140000
  16 C :   -0.139956
  17 C :    0.046820
  18 C :   -0.160503
  19 C :   -0.188822
  20 Br:   -0.091009
  21 H :    0.150725
  22 H :    0.151522
  23 H :    0.186326
  24 H :    0.193709
  25 H :    0.150295
  26 H :    0.195782
  27 H :    0.149833
  28 H :    0.150879
  29 H :    0.151485
  30 H :    0.186370
  31 H :    0.190680
  32 H :    0.173299
  33 H :    0.172219
  34 H :    0.200872
Sum of atomic charges:   -0.0000000

LOEWDIN ATOMIC CHARGES
----------------------
   0 C :   -0.130102
   1 C :   -0.133940
   2 C :   -0.113105
   3 C :   -0.230638
   4 C :   -0.138851
   5 C :   -0.140005
   6 P :    0.684819
   7 O :   -0.305428
   8 C :   -0.230672
   9 C :   -0.138418
  10 C :   -0.140182
  11 C :   -0.130221
  12 C :   -0.133884
  13 C :   -0.113464
  14 C :   -0.227171
  15 C :   -0.105820
  16 C :   -0.137227
  17 C :   -0.372198
  18 C :   -0.143152
  19 C :   -0.130636
  20 Br:    0.346919
  21 H :    0.149374
  22 H :    0.150272
  23 H :    0.161164
  24 H :    0.155036
  25 H :    0.149376
  26 H :    0.155966
  27 H :    0.149306
  28 H :    0.149343
  29 H :    0.150309
  30 H :    0.161095
  31 H :    0.164271
  32 H :    0.155051
  33 H :    0.154066
  34 H :    0.158745

  Mayer bond orders larger than 0.100000
B(  0-C ,  1-C ) :   1.4316 B(  0-C ,  5-C ) :   1.4441 B(  0-C , 21-H ) :   0.9460
B(  1-C ,  2-C ) :   1.4406 B(  1-C , 22-H ) :   0.9464 B(  2-C ,  3-C ) :   1.4333
B(  2-C , 23-H ) :   0.9093 B(  3-C ,  4-C ) :   1.3173 B(  3-C ,  6-P ) :   0.9202
B(  4-C ,  5-C ) :   1.4853 B(  4-C , 24-H ) :   0.9169 B(  5-C , 25-H ) :   0.9424
B(  6-P ,  7-O ) :   1.9447 B(  6-P ,  8-C ) :   0.9182 B(  6-P , 14-C ) :   0.9196
B(  8-C ,  9-C ) :   1.3224 B(  8-C , 13-C ) :   1.4344 B(  9-C , 10-C ) :   1.4814
B(  9-C , 26-H ) :   0.9165 B( 10-C , 11-C ) :   1.4446 B( 10-C , 27-H ) :   0.9431
B( 11-C , 12-C ) :   1.4307 B( 11-C , 28-H ) :   0.9459 B( 12-C , 13-C ) :   1.4418
B( 12-C , 29-H ) :   0.9468 B( 13-C , 30-H ) :   0.9101 B( 14-C , 15-C ) :   1.4384
B( 14-C , 19-C ) :   1.3248 B( 15-C , 16-C ) :   1.4370 B( 15-C , 31-H ) :   0.9055
B( 16-C , 17-C ) :   1.3719 B( 16-C , 32-H ) :   0.9287 B( 17-C , 18-C ) :   1.3953
B( 17-C , 20-Br) :   1.0850 B( 18-C , 19-C ) :   1.4857 B( 18-C , 33-H ) :   0.9218
B( 19-C , 34-H ) :   0.9093

Dispersion correction           -0.002398798
FINAL SINGLE POINT ENERGY     -3685.111149030717

DIPOLE MOMENT
-------------

Method             : SCF
Type of density    : Electron Density
Multiplicity       :   1
Irrep              :   0
Energy             : -3685.1087502326981848 Eh
Relativity type    :
Basis              : AO
                                X                 Y                 Z
Electronic contribution:     60.531041438      23.470941346       7.928667912
Nuclear contribution   :    -61.209594783     -23.683336720      -6.482902473
                        -----------------------------------------
Total Dipole Moment    :     -0.678553345      -0.212395374       1.445765439
                        -----------------------------------------
Magnitude (a.u.)       :      1.611143737
Magnitude (Debye)      :      4.095201928

Rotational constants in cm-1:             0.010408             0.004234             0.003510
Rotational constants in MHz :           312.014904           126.932926           105.220945

                             ****ORCA TERMINATED NORMALLY****
TOTAL RUN TIME: 0 days 0 hours 2 minutes 41 seconds 789 msec
