                         Program Version 6.0.0  -   RELEASE   -
|  1> ! RIJCOSX M062X def2-TZVP D3ZERO NormalSCF
|  2> %pal
|  3> nprocs 6
|  4> end
|  5>
|  6> * xyz 0 1
|  7>   C          -0.58576966892175      4.04332849488621     -0.56838940466607
|  8>   C          -0.26765101195824      2.83805785361577      0.32277694522256
|  9>   C          -0.62287624006776      1.49603420922786     -0.33233952255686
| 10>   P          -0.31012577837608      0.01298611308398      0.77688185953913
| 11>   C          -0.87215699142396     -1.34777325223445     -0.38892298588517
| 12>   C          -2.39722005236270     -1.51401606961027     -0.44533829483423
| 13>   C          -2.84178736499614     -2.67158397707098     -1.34566597108690
| 14>   C           1.54625462093926     -0.14326798913653      0.54012139156948
| 15>   C           2.16841209693889     -1.30659479639787      1.32488941477792
| 16>   C           3.69115342225079     -1.38639244593961      1.17334828298120
| 17>   H          -0.32297932507604      5.00022101639595     -0.07251653943618
| 18>   H          -0.02538195013113      3.99686880753800     -1.52600168122188
| 19>   H          -1.66642729167790      4.08160099917215     -0.82107700903292
| 20>   H           0.81299335895379      2.85028180835170      0.58722296921365
| 21>   H          -0.81231048415816      2.92545642225713      1.28845629290523
| 22>   H          -1.70622103060442      1.48106367905389     -0.58406599406627
| 23>   H          -0.07431585288073      1.36971364481626     -1.29407032356753
| 24>   H          -0.45660244920534     -1.16779903537456     -1.40714245527396
| 25>   H          -0.40987355736612     -2.29069979709355     -0.02221962767337
| 26>   H          -2.86374995416540     -0.56933394728901     -0.80289927701576
| 27>   H          -2.78380636002577     -1.66585489187655      0.58638155298330
| 28>   H          -3.94640383101873     -2.77103139999850     -1.36919646688394
| 29>   H          -2.49553921724887     -2.52622815448458     -2.39066491025387
| 30>   H          -2.42510332693848     -3.63819769223107     -0.99188266591566
| 31>   H           1.78264981468011     -0.22867790953094     -0.54563034460069
| 32>   H           1.99108076685309      0.81648050727539      0.88435158541260
| 33>   H           1.89847335655032     -1.20523407729010      2.39903698126035
| 34>   H           1.71471630742355     -2.26654266271753      0.99236373757602
| 35>   H           4.18020031863536     -0.45722463900682      1.53475843318472
| 36>   H           4.11598841504132     -2.23449221884939      1.74855634611067
| 37>   H           3.98437926033722     -1.52114759954199      0.11083968123439
| 38> **                         ****END OF INPUT****

CARTESIAN COORDINATES (ANGSTROEM)
---------------------------------
  C     -0.585770    4.043328   -0.568389
  C     -0.267651    2.838058    0.322777
  C     -0.622876    1.496034   -0.332340
  P     -0.310126    0.012986    0.776882
  C     -0.872157   -1.347773   -0.388923
  C     -2.397220   -1.514016   -0.445338
  C     -2.841787   -2.671584   -1.345666
  C      1.546255   -0.143268    0.540121
  C      2.168412   -1.306595    1.324889
  C      3.691153   -1.386392    1.173348
  H     -0.322979    5.000221   -0.072517
  H     -0.025382    3.996869   -1.526002
  H     -1.666427    4.081601   -0.821077
  H      0.812993    2.850282    0.587223
  H     -0.812310    2.925456    1.288456
  H     -1.706221    1.481064   -0.584066
  H     -0.074316    1.369714   -1.294070
  H     -0.456602   -1.167799   -1.407142
  H     -0.409874   -2.290700   -0.022220
  H     -2.863750   -0.569334   -0.802899
  H     -2.783806   -1.665855    0.586382
  H     -3.946404   -2.771031   -1.369196
  H     -2.495539   -2.526228   -2.390665
  H     -2.425103   -3.638198   -0.991883
  H      1.782650   -0.228678   -0.545630
  H      1.991081    0.816481    0.884352
  H      1.898473   -1.205234    2.399037
  H      1.714716   -2.266543    0.992364
  H      4.180200   -0.457225    1.534758
  H      4.115988   -2.234492    1.748556
  H      3.984379   -1.521148    0.110840

 Total Charge           Charge          ....    0
 Multiplicity           Mult            ....    1
 Number of Electrons    NEL             ....   90
 Basis Dimension        Dim             ....  442

ORBITAL ENERGIES
----------------

  NO   OCC          E(Eh)            E(eV)
   0   2.0000     -78.011715     -2122.8067
   1   2.0000     -10.537965      -286.7526
   2   2.0000     -10.537920      -286.7514
   3   2.0000     -10.537851      -286.7495
   4   2.0000     -10.535747      -286.6923
   5   2.0000     -10.535688      -286.6907
   6   2.0000     -10.535642      -286.6894
   7   2.0000     -10.528767      -286.5023
   8   2.0000     -10.528738      -286.5015
   9   2.0000     -10.528731      -286.5013
  10   2.0000      -6.827725      -185.7919
  11   2.0000      -4.942171      -134.4833
  12   2.0000      -4.941876      -134.4753
  13   2.0000      -4.941867      -134.4750
  14   2.0000      -0.893841       -24.3226
  15   2.0000      -0.875213       -23.8158
  16   2.0000      -0.875174       -23.8147
  17   2.0000      -0.804234       -21.8843
  18   2.0000      -0.759892       -20.6777
  19   2.0000      -0.759820       -20.6757
  20   2.0000      -0.680374       -18.5139
  21   2.0000      -0.662965       -18.0402
  22   2.0000      -0.662811       -18.0360
  23   2.0000      -0.597263       -16.2523
  24   2.0000      -0.530719       -14.4416
  25   2.0000      -0.530629       -14.4391
  26   2.0000      -0.529541       -14.4096
  27   2.0000      -0.488871       -13.3028
  28   2.0000      -0.488822       -13.3015
  29   2.0000      -0.479681       -13.0528
  30   2.0000      -0.461977       -12.5710
  31   2.0000      -0.461910       -12.5692
  32   2.0000      -0.452659       -12.3175
  33   2.0000      -0.444255       -12.0888
  34   2.0000      -0.444082       -12.0841
  35   2.0000      -0.427665       -11.6374
  36   2.0000      -0.400803       -10.9064
  37   2.0000      -0.398115       -10.8332
  38   2.0000      -0.398087       -10.8325
  39   2.0000      -0.395479       -10.7615
  40   2.0000      -0.384253       -10.4560
  41   2.0000      -0.384232       -10.4555
  42   2.0000      -0.345122        -9.3913
  43   2.0000      -0.345050        -9.3893
  44   2.0000      -0.272933        -7.4269
  45   0.0000       0.059469         1.6182
  46   0.0000       0.059610         1.6221
  47   0.0000       0.065901         1.7933
  48   0.0000       0.089111         2.4248
  49   0.0000       0.090037         2.4500

MULLIKEN ATOMIC CHARGES
-----------------------
   0 C :   -0.421406
   1 C :   -0.249000
   2 C :   -0.411316
   3 P :    0.241583
   4 C :   -0.411541
   5 C :   -0.248946
   6 C :   -0.420814
   7 C :   -0.412313
   8 C :   -0.248546
   9 C :   -0.420756
  10 H :    0.142259
  11 H :    0.136179
  12 H :    0.136624
  13 H :    0.132590
  14 H :    0.143821
  15 H :    0.154011
  16 H :    0.155644
  17 H :    0.156145
  18 H :    0.154076
  19 H :    0.132433
  20 H :    0.143714
  21 H :    0.142167
  22 H :    0.135981
  23 H :    0.136483
  24 H :    0.156266
  25 H :    0.154313
  26 H :    0.143684
  27 H :    0.132229
  28 H :    0.136469
  29 H :    0.142102
  30 H :    0.135868
Sum of atomic charges:   -0.0000000

LOEWDIN ATOMIC CHARGES
----------------------
   0 C :   -0.326569
   1 C :   -0.333240
   2 C :   -0.422682
   3 P :    0.550554
   4 C :   -0.422705
   5 C :   -0.333269
   6 C :   -0.326498
   7 C :   -0.422917
   8 C :   -0.333176
   9 C :   -0.326480
  10 H :    0.121973
  11 H :    0.121453
  12 H :    0.121825
  13 H :    0.133929
  14 H :    0.138149
  15 H :    0.133642
  16 H :    0.127982
  17 H :    0.128087
  18 H :    0.133650
  19 H :    0.133868
  20 H :    0.138151
  21 H :    0.121984
  22 H :    0.121404
  23 H :    0.121797
  24 H :    0.128065
  25 H :    0.133765
  26 H :    0.138160
  27 H :    0.133881
  28 H :    0.121799
  29 H :    0.121986
  30 H :    0.121433

  Mayer bond orders larger than 0.100000
B(  0-C ,  1-C ) :   0.9472 B(  0-C , 10-H ) :   0.9781 B(  0-C , 11-H ) :   0.9725
B(  0-C , 12-H ) :   0.9746 B(  1-C ,  2-C ) :   0.9250 B(  1-C , 13-H ) :   0.9779
B(  1-C , 14-H ) :   0.9707 B(  2-C ,  3-P ) :   0.9679 B(  2-C , 15-H ) :   0.9527
B(  2-C , 16-H ) :   0.9583 B(  3-P ,  4-C ) :   0.9672 B(  3-P ,  7-C ) :   0.9673
B(  4-C ,  5-C ) :   0.9252 B(  4-C , 17-H ) :   0.9578 B(  4-C , 18-H ) :   0.9530
B(  5-C ,  6-C ) :   0.9479 B(  5-C , 19-H ) :   0.9779 B(  5-C , 20-H ) :   0.9708
B(  6-C , 21-H ) :   0.9780 B(  6-C , 22-H ) :   0.9727 B(  6-C , 23-H ) :   0.9746
B(  7-C ,  8-C ) :   0.9249 B(  7-C , 24-H ) :   0.9580 B(  7-C , 25-H ) :   0.9527
B(  8-C ,  9-C ) :   0.9479 B(  8-C , 26-H ) :   0.9706 B(  8-C , 27-H ) :   0.9782
B(  9-C , 28-H ) :   0.9748 B(  9-C , 29-H ) :   0.9781 B(  9-C , 30-H ) :   0.9725

Dispersion correction           -0.001222059
FINAL SINGLE POINT ENERGY      -696.896822351446

DIPOLE MOMENT
-------------

Method             : SCF
Type of density    : Electron Density
Multiplicity       :   1
Irrep              :   0
Energy             :  -696.8956002920394894 Eh
Relativity type    :
Basis              : AO
                                X                 Y                 Z
Electronic contribution:     -1.915431862       0.080671766       4.926283982
Nuclear contribution   :      2.063832464      -0.086834278      -5.303950316
                        -----------------------------------------
Total Dipole Moment    :      0.148400601      -0.006162513      -0.377666333
                        -----------------------------------------
Magnitude (a.u.)       :      0.405823329
Magnitude (Debye)      :      1.031520926

Rotational constants in cm-1:             0.025095             0.025024             0.013390
Rotational constants in MHz :           752.319936           750.188267           401.434213

                             ****ORCA TERMINATED NORMALLY****
TOTAL RUN TIME: 0 days 0 hours 0 minutes 46 seconds 306 msec
