                         Program Version 6.0.0  -   RELEASE   -
|  1> ! RIJONX B3LYP def2-SVP D3BJ TIGHTSCF Opt
|  2> %pal
|  3> nprocs 6
|  4> end
|  5>
|  6> * xyz 0 1
|  7> C     -0.728450   -1.706077    1.580154
|  8> C     -1.252068   -1.260757    0.209030
|  9> C     -2.704228   -0.770032    0.397222
| 10> C     -1.392408   -2.511102   -0.699513
| 11> P     -0.191138    0.016725   -0.659923
| 12> C     -0.466731    1.726197    0.057269
| 13> C     -1.823027    2.281406   -0.453330
| 14> C     -0.455432    1.789898    1.589679
| 15> C      0.573315    2.742347   -0.463058
| 16> C      1.621324   -0.456911   -0.602837
| 17> C      2.315479   -0.182835    0.737126
| 18> C      2.382873    0.302546   -1.721665
| 19> C      1.837273   -1.946622   -0.947980
| 20> H      0.217805   -2.246806    1.513208
| 21> H     -1.435975   -2.392467    2.062078
| 22> H     -0.582301   -0.869635    2.267413
| 23> H     -2.785972    0.011389    1.155293
| 24> H     -3.137110   -0.402535   -0.540337
| 25> H     -3.354029   -1.582696    0.747274
| 26> H     -0.471390   -3.086556   -0.791276
| 27> H     -1.721078   -2.243628   -1.711249
| 28> H     -2.134358   -3.210502   -0.293323
| 29> H     -2.688069    1.774480   -0.026046
| 30> H     -1.903730    2.216338   -1.545316
| 31> H     -1.941372    3.338614   -0.183243
| 32> H      0.465329    1.390840    2.021269
| 33> H     -1.291174    1.249499    2.038872
| 34> H     -0.544375    2.827220    1.936125
| 35> H      0.646062    2.730350   -1.556687
| 36> H      1.566248    2.577146   -0.040248
| 37> H      0.302880    3.766966   -0.176312
| 38> H      3.347812   -0.554406    0.723103
| 39> H      1.816117   -0.669879    1.577806
| 40> H      2.381891    0.882811    0.965722
| 41> H      2.478792    1.371637   -1.532766
| 42> H      1.899959    0.178212   -2.698659
| 43> H      3.410633   -0.069919   -1.819763
| 44> H      1.498607   -2.612944   -0.152182
| 45> H      2.903684   -2.171366   -1.080107
| 46> H      1.338330   -2.226948   -1.882822
| 47> **                         ****END OF INPUT****
 Total Charge           Charge          ....    0
 Multiplicity           Mult            ....    1
 Number of Electrons    NEL             ....  114
Dispersion correction           -0.085800104
FINAL SINGLE POINT ENERGY      -814.098089733392
Dispersion correction             ... done (  0.1 sec)
Dispersion correction           -0.086954702
FINAL SINGLE POINT ENERGY      -814.105724918674
Dispersion correction             ... done (  0.1 sec)
Dispersion correction           -0.085710073
FINAL SINGLE POINT ENERGY      -814.107643668080
Dispersion correction             ... done (  0.1 sec)
FINAL SINGLE POINT ENERGY      -814.105415292346
FINAL SINGLE POINT ENERGY      -814.108504676809
FINAL SINGLE POINT ENERGY      -814.108129729603
FINAL SINGLE POINT ENERGY      -814.108661291290
FINAL SINGLE POINT ENERGY      -814.108498775427
FINAL SINGLE POINT ENERGY      -814.108840403416
FINAL SINGLE POINT ENERGY      -814.108966989010
FINAL SINGLE POINT ENERGY      -814.109117068361
FINAL SINGLE POINT ENERGY      -814.109153372122
FINAL SINGLE POINT ENERGY      -814.109160152833
Dispersion correction             ... done (  0.1 sec)
Dispersion correction           -0.085824641
FINAL SINGLE POINT ENERGY      -814.109160217527
Dispersion correction             ... done (  0.1 sec)
Dispersion correction           -0.085849917
FINAL SINGLE POINT ENERGY      -814.109162961080
Dispersion correction             ... done (  0.1 sec)
                    ***********************HURRAY********************

CARTESIAN COORDINATES (ANGSTROEM)
---------------------------------
  C     -0.693825   -1.714441    1.568711
  C     -1.255107   -1.280026    0.205676
  C     -2.684049   -0.742687    0.414747
  C     -1.409917   -2.517733   -0.706294
  P     -0.232574    0.021553   -0.805911
  C     -0.481488    1.738735    0.059610
  C     -1.825294    2.297704   -0.460275
  C     -0.478681    1.764021    1.595875
  C      0.595537    2.716095   -0.448856
  C      1.638872   -0.449608   -0.608539
  C      2.303662   -0.149850    0.744050
  C      2.398137    0.294115   -1.730315
  C      1.812978   -1.948837   -0.918197
  H      0.269983   -2.232810    1.479987
  H     -1.396204   -2.420959    2.046469
  H     -0.561857   -0.867321    2.254294
  H     -2.732900    0.073154    1.146732
  H     -3.131671   -0.394143   -0.528449
  H     -3.317175   -1.560962    0.798632
  H     -0.468520   -3.049909   -0.879684
  H     -1.823804   -2.235761   -1.686656
  H     -2.108092   -3.231147   -0.234470
  H     -2.695213    1.737642   -0.100891
  H     -1.853668    2.297211   -1.560764
  H     -1.942004    3.340591   -0.117060
  H      0.461566    1.387797    2.019939
  H     -1.302404    1.178845    2.025039
  H     -0.606350    2.804300    1.945565
  H      0.653700    2.723293   -1.547959
  H      1.593894    2.500493   -0.048125
  H      0.328944    3.736645   -0.124728
  H      3.352156   -0.497488    0.722471
  H      1.804345   -0.660555    1.577629
  H      2.326969    0.924291    0.969995
  H      2.425526    1.379892   -1.589168
  H      1.946149    0.091944   -2.713548
  H      3.443526   -0.060131   -1.756659
  H      1.416306   -2.598516   -0.128172
  H      2.890522   -2.169062   -1.009153
  H      1.338021   -2.226376   -1.871546

 Multiplicity           Mult            ....    1
 Number of Electrons    NEL             ....  114
 Basis Dimension        Dim             ....  321

ORBITAL ENERGIES
----------------

  NO   OCC          E(Eh)            E(eV)
   0   2.0000     -77.029617     -2096.0824
   1   2.0000     -10.197088      -277.4769
   2   2.0000     -10.197047      -277.4758
   3   2.0000     -10.196999      -277.4744
   4   2.0000     -10.175237      -276.8823
   5   2.0000     -10.175216      -276.8817
   6   2.0000     -10.175163      -276.8803
   7   2.0000     -10.174443      -276.8607
   8   2.0000     -10.174412      -276.8598
   9   2.0000     -10.174347      -276.8580
  10   2.0000     -10.170404      -276.7507
  11   2.0000     -10.170370      -276.7498
  12   2.0000     -10.170348      -276.7492
  13   2.0000      -6.524985      -177.5539
  14   2.0000      -4.690364      -127.6313
  15   2.0000      -4.690363      -127.6313
  16   2.0000      -4.687259      -127.5468
  17   2.0000      -0.812384       -22.1061
  18   2.0000      -0.790225       -21.5031
  19   2.0000      -0.790167       -21.5015
  20   2.0000      -0.681772       -18.5520
  21   2.0000      -0.676307       -18.4033
  22   2.0000      -0.676254       -18.4018
  23   2.0000      -0.669594       -18.2206
  24   2.0000      -0.669541       -18.2191
  25   2.0000      -0.660183       -17.9645
  26   2.0000      -0.618113       -16.8197
  27   2.0000      -0.535581       -14.5739
  28   2.0000      -0.535494       -14.5715
  29   2.0000      -0.505290       -13.7496
  30   2.0000      -0.457252       -12.4425
  31   2.0000      -0.457204       -12.4412
  32   2.0000      -0.444624       -12.0988
  33   2.0000      -0.438892       -11.9429
  34   2.0000      -0.438775       -11.9397
  35   2.0000      -0.421705       -11.4752
  36   2.0000      -0.419537       -11.4162
  37   2.0000      -0.419468       -11.4143
  38   2.0000      -0.398216       -10.8360
  39   2.0000      -0.388725       -10.5777
  40   2.0000      -0.383159       -10.4263
  41   2.0000      -0.383126       -10.4254
  42   2.0000      -0.373570       -10.1653
  43   2.0000      -0.373532       -10.1643
  44   2.0000      -0.368908       -10.0385
  45   2.0000      -0.362184        -9.8555
  46   2.0000      -0.357467        -9.7272
  47   2.0000      -0.357347        -9.7239
  48   2.0000      -0.338466        -9.2101
  49   2.0000      -0.338446        -9.2096
  50   2.0000      -0.337516        -9.1843
  51   2.0000      -0.325237        -8.8501
  52   2.0000      -0.325182        -8.8487
  53   2.0000      -0.308069        -8.3830
  54   2.0000      -0.276005        -7.5105
  55   2.0000      -0.275948        -7.5089
  56   2.0000      -0.202598        -5.5130
  57   0.0000       0.050403         1.3715
  58   0.0000       0.059437         1.6174
  59   0.0000       0.059555         1.6206
  60   0.0000       0.071005         1.9321
  61   0.0000       0.080341         2.1862

MULLIKEN ATOMIC CHARGES
-----------------------
   0 C :    0.104164
   1 C :   -0.405363
   2 C :    0.075719
   3 C :    0.093249
   4 P :    0.289040
   5 C :   -0.405012
   6 C :    0.092716
   7 C :    0.103707
   8 C :    0.076301
   9 C :   -0.405467
  10 C :    0.104057
  11 C :    0.093087
  12 C :    0.076089
  13 H :    0.008096
  14 H :   -0.007456
  15 H :    0.001348
  16 H :    0.013646
  17 H :    0.020662
  18 H :   -0.002797
  19 H :   -0.004399
  20 H :    0.011113
  21 H :   -0.004359
  22 H :   -0.004211
  23 H :    0.011299
  24 H :   -0.004282
  25 H :    0.001125
  26 H :    0.008276
  27 H :   -0.007431
  28 H :    0.020546
  29 H :    0.013696
  30 H :   -0.002878
  31 H :   -0.007446
  32 H :    0.000854
  33 H :    0.008193
  34 H :   -0.004178
  35 H :    0.011265
  36 H :   -0.004350
  37 H :    0.013599
  38 H :   -0.002859
  39 H :    0.020642
Sum of atomic charges:   -0.0000000

LOEWDIN ATOMIC CHARGES
----------------------
   0 C :   -0.052069
   1 C :   -0.170649
   2 C :   -0.049378
   3 C :   -0.053702
   4 P :    0.476884
   5 C :   -0.170739
   6 C :   -0.053701
   7 C :   -0.052090
   8 C :   -0.049357
   9 C :   -0.170636
  10 C :   -0.052051
  11 C :   -0.053653
  12 C :   -0.049382
  13 H :    0.016023
  14 H :    0.019475
  15 H :    0.019559
  16 H :    0.014831
  17 H :    0.021554
  18 H :    0.020285
  19 H :    0.017402
  20 H :    0.020212
  21 H :    0.017548
  22 H :    0.017457
  23 H :    0.020145
  24 H :    0.017533
  25 H :    0.019522
  26 H :    0.016020
  27 H :    0.019492
  28 H :    0.021587
  29 H :    0.014836
  30 H :    0.020285
  31 H :    0.019447
  32 H :    0.019552
  33 H :    0.015993
  34 H :    0.017404
  35 H :    0.020157
  36 H :    0.017569
  37 H :    0.014819
  38 H :    0.020261
  39 H :    0.021554

  Mayer bond orders larger than 0.100000
B(  0-C ,  1-C ) :   1.0153 B(  0-C , 13-H ) :   0.9559 B(  0-C , 14-H ) :   0.9442
B(  0-C , 15-H ) :   0.9591 B(  1-C ,  2-C ) :   1.0332 B(  1-C ,  3-C ) :   1.0182
B(  1-C ,  4-P ) :   0.9319 B(  2-C , 16-H ) :   0.9569 B(  2-C , 17-H ) :   0.9567
B(  2-C , 18-H ) :   0.9462 B(  3-C , 19-H ) :   0.9604 B(  3-C , 20-H ) :   0.9607
B(  3-C , 21-H ) :   0.9544 B(  4-P ,  5-C ) :   0.9320 B(  4-P ,  9-C ) :   0.9321
B(  5-C ,  6-C ) :   1.0182 B(  5-C ,  7-C ) :   1.0155 B(  5-C ,  8-C ) :   1.0333
B(  6-C , 22-H ) :   0.9604 B(  6-C , 23-H ) :   0.9606 B(  6-C , 24-H ) :   0.9543
B(  7-C , 25-H ) :   0.9593 B(  7-C , 26-H ) :   0.9557 B(  7-C , 27-H ) :   0.9443
B(  8-C , 28-H ) :   0.9567 B(  8-C , 29-H ) :   0.9570 B(  8-C , 30-H ) :   0.9463
B(  9-C , 10-C ) :   1.0153 B(  9-C , 11-C ) :   1.0183 B(  9-C , 12-C ) :   1.0333
B( 10-C , 31-H ) :   0.9444 B( 10-C , 32-H ) :   0.9593 B( 10-C , 33-H ) :   0.9559
B( 11-C , 34-H ) :   0.9604 B( 11-C , 35-H ) :   0.9607 B( 11-C , 36-H ) :   0.9544
B( 12-C , 37-H ) :   0.9569 B( 12-C , 38-H ) :   0.9462 B( 12-C , 39-H ) :   0.9567

Dispersion correction           -0.085843383
FINAL SINGLE POINT ENERGY      -814.109163299790

DIPOLE MOMENT
-------------

Method             : SCF
Type of density    : Electron Density
Multiplicity       :   1
Irrep              :   0
Energy             :  -814.0233199168944793 Eh
Relativity type    :
Basis              : AO
                                X                 Y                 Z
Electronic contribution:     -1.333755471       0.124503338      -4.638896038
Nuclear contribution   :      1.447277893      -0.134464873       5.036527716
                        -----------------------------------------
Total Dipole Moment    :      0.113522422      -0.009961535       0.397631678
                        -----------------------------------------
Magnitude (a.u.)       :      0.413639365
Magnitude (Debye)      :      1.051387710

Rotational constants in cm-1:             0.023846             0.023843             0.015872
Rotational constants in MHz :           714.873811           714.786333           475.821922

                             ****ORCA TERMINATED NORMALLY****
TOTAL RUN TIME: 0 days 0 hours 12 minutes 7 seconds 370 msec
