                         Program Version 6.0.0  -   RELEASE   -
|  1> ! RIJCOSX M062X def2-TZVP D3ZERO NormalSCF
|  2> %pal
|  3> nprocs 6
|  4> end
|  5>
|  6> * xyz 0 1
|  7>   C           4.74256427064392     -0.52745669911865      1.52385462006296
|  8>   N           4.35298789760330      0.19223415608324      0.32683310619336
|  9>   C           5.33018069741211      0.98314006211902     -0.39567441840838
| 10>   C           3.04631530897345      0.12613905300057     -0.12478403807905
| 11>   C           2.06237160660113     -0.64124218204314      0.56413694855837
| 12>   C           0.74268323037117     -0.69909570727016      0.10597706394148
| 13>   C           0.33432654712304     -0.00917934624560     -1.05567138136504
| 14>   C           1.31114539668903      0.73804165439850     -1.74940962986663
| 15>   C           2.63239741425644      0.81814403297054     -1.29995988236299
| 16>   P          -1.38950090253182      0.00427111063122     -1.70648636898626
| 17>   C          -2.09351268892801     -1.47139386511482     -0.83198137147249
| 18>   C          -1.83910809043835     -2.73810224641131     -1.40456867412006
| 19>   C          -2.31951252163261     -3.90747809980229     -0.79719649267619
| 20>   C          -3.07893789145444     -3.82747268027190      0.38379911852746
| 21>   C          -3.34734159464186     -2.57210329242293      0.95328814280082
| 22>   C          -2.85564835779367     -1.40036298371056      0.35281256187922
| 23>   C          -2.15336133814562      1.38146185093645     -0.72799204442434
| 24>   C          -1.47746374427612      2.08405782093426      0.29092692972565
| 25>   C          -2.11836020933382      3.12828341589782      0.97905946813080
| 26>   C          -3.44116148197468      3.47930596915415      0.66302618763922
| 27>   C          -4.12136754456067      2.78641682982668     -0.35436566803951
| 28>   C          -3.47785719837891      1.75337447296532     -1.05184886880681
| 29>   H           5.81597268871954     -0.35452200755964      1.72210097333833
| 30>   H           4.58814615331412     -1.62620835047662      1.42306949571240
| 31>   H           4.17255903046305     -0.19215434330683      2.42057746981879
| 32>   H           5.47192893115283      0.62549283826792     -1.44138073287814
| 33>   H           5.04482944598358      2.05891377290494     -0.44744289847159
| 34>   H           6.30641833730499      0.91771347756864      0.11821845657497
| 35>   H           2.32922772858234     -1.20024166537804      1.47046381296842
| 36>   H           0.00999227671813     -1.29803367513845      0.66828393051494
| 37>   H           1.02633430693753      1.27767214400358     -2.66753175094957
| 38>   H           3.35081080766565      1.41648723234284     -1.87499411124562
| 39>   H          -1.25276921153726     -2.80279830676585     -2.33570807319044
| 40>   H          -2.10797500375600     -4.88749101291459     -1.25261220483950
| 41>   H          -3.46396224120298     -4.74395696227782      0.85689888827222
| 42>   H          -3.94114578478912     -2.50165635331290      1.87814912352838
| 43>   H          -3.06156024658131     -0.42133237439266      0.81072932305668
| 44>   H          -0.44401632983599      1.80552998936442      0.54667622391102
| 45>   H          -1.57936996119502      3.66940707394577      1.77258130497640
| 46>   H          -3.94167694293449      4.29641011146999      1.20515513994077
| 47>   H          -5.15664669328698      3.05938002861334     -0.61182383104492
| 48>   H          -4.00893609730561      1.22040305653555     -1.85764484884509
| 49> **                         ****END OF INPUT****

CARTESIAN COORDINATES (ANGSTROEM)
---------------------------------
  C      4.742564   -0.527457    1.523855
  N      4.352988    0.192234    0.326833
  C      5.330181    0.983140   -0.395674
  C      3.046315    0.126139   -0.124784
  C      2.062372   -0.641242    0.564137
  C      0.742683   -0.699096    0.105977
  C      0.334327   -0.009179   -1.055671
  C      1.311145    0.738042   -1.749410
  C      2.632397    0.818144   -1.299960
  P     -1.389501    0.004271   -1.706486
  C     -2.093513   -1.471394   -0.831981
  C     -1.839108   -2.738102   -1.404569
  C     -2.319513   -3.907478   -0.797196
  C     -3.078938   -3.827473    0.383799
  C     -3.347342   -2.572103    0.953288
  C     -2.855648   -1.400363    0.352813
  C     -2.153361    1.381462   -0.727992
  C     -1.477464    2.084058    0.290927
  C     -2.118360    3.128283    0.979059
  C     -3.441161    3.479306    0.663026
  C     -4.121368    2.786417   -0.354366
  C     -3.477857    1.753374   -1.051849
  H      5.815973   -0.354522    1.722101
  H      4.588146   -1.626208    1.423069
  H      4.172559   -0.192154    2.420577
  H      5.471929    0.625493   -1.441381
  H      5.044829    2.058914   -0.447443
  H      6.306418    0.917713    0.118218
  H      2.329228   -1.200242    1.470464
  H      0.009992   -1.298034    0.668284
  H      1.026334    1.277672   -2.667532
  H      3.350811    1.416487   -1.874994
  H     -1.252769   -2.802798   -2.335708
  H     -2.107975   -4.887491   -1.252612
  H     -3.463962   -4.743957    0.856899
  H     -3.941146   -2.501656    1.878149
  H     -3.061560   -0.421332    0.810729
  H     -0.444016    1.805530    0.546676
  H     -1.579370    3.669407    1.772581
  H     -3.941677    4.296410    1.205155
  H     -5.156647    3.059380   -0.611824
  H     -4.008936    1.220403   -1.857645

 Total Charge           Charge          ....    0
 Multiplicity           Mult            ....    1
 Number of Electrons    NEL             ....  162
 Basis Dimension        Dim             ....  808

ORBITAL ENERGIES
----------------

  NO   OCC          E(Eh)            E(eV)
   0   2.0000     -78.022504     -2123.1003
   1   2.0000     -14.772846      -401.9896
   2   2.0000     -10.590268      -288.1758
   3   2.0000     -10.578520      -287.8562
   4   2.0000     -10.578442      -287.8541
   5   2.0000     -10.548321      -287.0344
   6   2.0000     -10.547174      -287.0032
   7   2.0000     -10.546231      -286.9775
   8   2.0000     -10.546223      -286.9773
   9   2.0000     -10.545813      -286.9662
  10   2.0000     -10.545790      -286.9655
  11   2.0000     -10.545783      -286.9653
  12   2.0000     -10.545175      -286.9488
  13   2.0000     -10.545135      -286.9477
  14   2.0000     -10.544883      -286.9409
  15   2.0000     -10.544699      -286.9358
  16   2.0000     -10.543995      -286.9167
  17   2.0000     -10.543693      -286.9085
  18   2.0000     -10.543038      -286.8907
  19   2.0000     -10.539260      -286.7878
  20   2.0000     -10.538867      -286.7772
  21   2.0000     -10.536167      -286.7037
  22   2.0000      -6.838422      -186.0829
  23   2.0000      -4.953101      -134.7807
  24   2.0000      -4.952672      -134.7690
  25   2.0000      -4.952640      -134.7682
  26   2.0000      -1.062912       -28.9233
  27   2.0000      -0.954210       -25.9654
  28   2.0000      -0.947418       -25.7805
  29   2.0000      -0.940344       -25.5881
  30   2.0000      -0.859285       -23.3823
  31   2.0000      -0.842497       -22.9255
  32   2.0000      -0.836767       -22.7696
  33   2.0000      -0.835113       -22.7246
  34   2.0000      -0.831749       -22.6330
  35   2.0000      -0.828861       -22.5545
  36   2.0000      -0.814873       -22.1738
  37   2.0000      -0.755116       -20.5477
  38   2.0000      -0.711263       -19.3544
  39   2.0000      -0.682227       -18.5643
  40   2.0000      -0.681086       -18.5333
  41   2.0000      -0.679768       -18.4974
  42   2.0000      -0.668956       -18.2032
  43   2.0000      -0.653998       -17.7962
  44   2.0000      -0.625860       -17.0305
  45   2.0000      -0.598828       -16.2949
  46   2.0000      -0.583138       -15.8680
  47   2.0000      -0.568442       -15.4681
  48   2.0000      -0.553111       -15.0509
  49   2.0000      -0.542919       -14.7736
  50   2.0000      -0.523844       -14.2545
  51   2.0000      -0.518890       -14.1197
  52   2.0000      -0.514586       -14.0026
  53   2.0000      -0.510323       -13.8866
  54   2.0000      -0.507933       -13.8216
  55   2.0000      -0.495426       -13.4812
  56   2.0000      -0.487562       -13.2672
  57   2.0000      -0.483563       -13.1584
  58   2.0000      -0.481109       -13.0916
  59   2.0000      -0.480631       -13.0786
  60   2.0000      -0.475081       -12.9276
  61   2.0000      -0.464331       -12.6351
  62   2.0000      -0.459501       -12.5037
  63   2.0000      -0.446501       -12.1499
  64   2.0000      -0.437468       -11.9041
  65   2.0000      -0.431654       -11.7459
  66   2.0000      -0.430408       -11.7120
  67   2.0000      -0.425306       -11.5732
  68   2.0000      -0.398201       -10.8356
  69   2.0000      -0.397366       -10.8129
  70   2.0000      -0.391742       -10.6599
  71   2.0000      -0.373263       -10.1570
  72   2.0000      -0.371427       -10.1070
  73   2.0000      -0.349744        -9.5170
  74   2.0000      -0.323766        -8.8101
  75   2.0000      -0.309656        -8.4262
  76   2.0000      -0.307410        -8.3651
  77   2.0000      -0.301799        -8.2124
  78   2.0000      -0.299736        -8.1562
  79   2.0000      -0.269193        -7.3251
  80   2.0000      -0.239892        -6.5278
  81   0.0000       0.003989         0.1085
  82   0.0000       0.006731         0.1832
  83   0.0000       0.012556         0.3417
  84   0.0000       0.026176         0.7123
  85   0.0000       0.028867         0.7855

MULLIKEN ATOMIC CHARGES
-----------------------
   0 C :   -0.378244
   1 N :   -0.156819
   2 C :   -0.380817
   3 C :    0.271166
   4 C :   -0.245140
   5 C :   -0.167616
   6 C :   -0.151756
   7 C :   -0.132776
   8 C :   -0.250885
   9 P :    0.117512
  10 C :   -0.080070
  11 C :   -0.148695
  12 C :   -0.147871
  13 C :   -0.138160
  14 C :   -0.158640
  15 C :   -0.145404
  16 C :   -0.092438
  17 C :   -0.119497
  18 C :   -0.167802
  19 C :   -0.137865
  20 C :   -0.140881
  21 C :   -0.162688
  22 H :    0.140018
  23 H :    0.160707
  24 H :    0.159949
  25 H :    0.161155
  26 H :    0.160591
  27 H :    0.139209
  28 H :    0.163792
  29 H :    0.179602
  30 H :    0.150032
  31 H :    0.165207
  32 H :    0.152625
  33 H :    0.143316
  34 H :    0.143579
  35 H :    0.144107
  36 H :    0.183127
  37 H :    0.184346
  38 H :    0.142611
  39 H :    0.143281
  40 H :    0.143722
  41 H :    0.154411
Sum of atomic charges:   -0.0000000

LOEWDIN ATOMIC CHARGES
----------------------
   0 C :   -0.309038
   1 N :    0.130743
   2 C :   -0.309059
   3 C :   -0.180189
   4 C :   -0.141737
   5 C :   -0.136767
   6 C :   -0.304305
   7 C :   -0.143895
   8 C :   -0.142813
   9 P :    0.691881
  10 C :   -0.273231
  11 C :   -0.141500
  12 C :   -0.145567
  13 C :   -0.144949
  14 C :   -0.145314
  15 C :   -0.140347
  16 C :   -0.275912
  17 C :   -0.136964
  18 C :   -0.144762
  19 C :   -0.144935
  20 C :   -0.146555
  21 C :   -0.144887
  22 H :    0.122963
  23 H :    0.119876
  24 H :    0.119498
  25 H :    0.119670
  26 H :    0.119713
  27 H :    0.123003
  28 H :    0.149913
  29 H :    0.158752
  30 H :    0.150659
  31 H :    0.149663
  32 H :    0.150403
  33 H :    0.146967
  34 H :    0.146031
  35 H :    0.147028
  36 H :    0.157540
  37 H :    0.158038
  38 H :    0.146783
  39 H :    0.146048
  40 H :    0.146995
  41 H :    0.150560

  Mayer bond orders larger than 0.100000
B(  0-C ,  1-N ) :   0.9596 B(  0-C , 22-H ) :   0.9686 B(  0-C , 23-H ) :   0.9605
B(  0-C , 24-H ) :   0.9608 B(  1-N ,  2-C ) :   0.9583 B(  1-N ,  3-C ) :   1.1625
B(  2-C , 25-H ) :   0.9604 B(  2-C , 26-H ) :   0.9603 B(  2-C , 27-H ) :   0.9690
B(  3-C ,  4-C ) :   1.3131 B(  3-C ,  8-C ) :   1.3184 B(  4-C ,  5-C ) :   1.5787
B(  4-C , 28-H ) :   0.9017 B(  5-C ,  6-C ) :   1.3071 B(  5-C , 29-H ) :   0.9212
B(  6-C ,  7-C ) :   1.3995 B(  6-C ,  9-P ) :   0.9549 B(  7-C ,  8-C ) :   1.5445
B(  7-C , 30-H ) :   0.9280 B(  8-C , 31-H ) :   0.9128 B(  9-P , 10-C ) :   0.9359
B(  9-P , 16-C ) :   0.9360 B( 10-C , 11-C ) :   1.4055 B( 10-C , 15-C ) :   1.3354
B( 11-C , 12-C ) :   1.4651 B( 11-C , 32-H ) :   0.9343 B( 12-C , 13-C ) :   1.4243
B( 12-C , 33-H ) :   0.9482 B( 13-C , 14-C ) :   1.4432 B( 13-C , 34-H ) :   0.9475
B( 14-C , 15-C ) :   1.4556 B( 14-C , 35-H ) :   0.9446 B( 15-C , 36-H ) :   0.9284
B( 16-C , 17-C ) :   1.3610 B( 16-C , 21-C ) :   1.3849 B( 17-C , 18-C ) :   1.4588
B( 17-C , 37-H ) :   0.9227 B( 18-C , 19-C ) :   1.4418 B( 18-C , 38-H ) :   0.9450
B( 19-C , 20-C ) :   1.4235 B( 19-C , 39-H ) :   0.9478 B( 20-C , 21-C ) :   1.4602
B( 20-C , 40-H ) :   0.9484 B( 21-C , 41-H ) :   0.9380

Dispersion correction           -0.002640221
FINAL SINGLE POINT ENERGY     -1170.198681112736

DIPOLE MOMENT
-------------

Method             : SCF
Type of density    : Electron Density
Multiplicity       :   1
Irrep              :   0
Energy             : -1170.1960408915281278 Eh
Relativity type    :
Basis              : AO
                                X                 Y                 Z
Electronic contribution:    -15.625715467      -0.456308401      -8.440462848
Nuclear contribution   :     16.790101382       0.474812133       9.262020518
                        -----------------------------------------
Total Dipole Moment    :      1.164385915       0.018503733       0.821557670
                        -----------------------------------------
Magnitude (a.u.)       :      1.425164535
Magnitude (Debye)      :      3.622480365

Rotational constants in cm-1:             0.011158             0.005816             0.004433
Rotational constants in MHz :           334.508150           174.371610           132.899679

                             ****ORCA TERMINATED NORMALLY****
TOTAL RUN TIME: 0 days 0 hours 2 minutes 42 seconds 978 msec
