                         Program Version 6.0.0  -   RELEASE   -
|  1> ! RIJCOSX M062X def2-TZVP D3ZERO NormalSCF
|  2> %pal
|  3> nprocs 6
|  4> end
|  5>
|  6> * xyz 0 1
|  7>   C           3.83665287309291     -1.59030718898198     -0.95662977432021
|  8>   C           2.87373230816347     -2.52431752946255     -0.53593996752609
|  9>   C           1.74460728956754     -2.10143556500003      0.18013410466262
| 10>   C           1.55386440623236     -0.73409505298150      0.47754681530826
| 11>   C           2.52796646406554      0.19617120747878      0.05849767414131
| 12>   C           3.66095092339938     -0.23045292808860     -0.65369288570597
| 13>   P           0.12891232934950     -0.21955677026527      1.53456966167203
| 14>   C          -0.18603393682460      1.49532444372591      0.90060377229407
| 15>   C          -0.36358149948310      1.77220210962212     -0.47322024438249
| 16>   C          -0.59664499125536      3.08748817192750     -0.89976167886985
| 17>   C          -0.65119374730055      4.13721944486483      0.03625931400469
| 18>   C          -0.47437457551865      3.86822753800842      1.40275755612148
| 19>   C          -0.24418952617751      2.54977837534570      1.83388644385273
| 20>   C          -1.26700768774408     -1.11993495324531      0.66551576758722
| 21>   C          -2.33860540492625     -1.58760322211418      1.45429964107558
| 22>   C          -3.41087526569995     -2.23831405059207      0.82449244344832
| 23>   C          -3.36997607061183     -2.40821705473412     -0.56718134082970
| 24>   C          -2.25427638047328     -1.91245595864523     -1.26630157455511
| 25>   N          -1.22936629333843     -1.28355802507792     -0.67178466781476
| 26>   H           4.72177952062839     -1.92308366154806     -1.52020165809166
| 27>   H           3.00173327600178     -3.59257798886645     -0.77053815849237
| 28>   H           0.99708964054475     -2.84309707772556      0.50248047525669
| 29>   H           2.39437600047287      1.26590090854005      0.28041497275697
| 30>   H           4.40905437326706      0.50919651643428     -0.97910411608094
| 31>   H          -0.32551781778712      0.94032234574755     -1.19371345000623
| 32>   H          -0.73657235924296      3.29833724150314     -1.97156775713365
| 33>   H          -0.83195835576585      5.16901822642009     -0.30310877283641
| 34>   H          -0.51521228572256      4.68704473835187      2.13772239899522
| 35>   H          -0.10453303653188      2.33211853109212      2.90487575254109
| 36>   H          -2.31829466019180     -1.44021497492652      2.54500570493710
| 37>   H          -4.26254457731128     -2.61344847953560      1.41315606485148
| 38>   H          -4.18330505306596     -2.91716160608547     -1.10602548445022
| 39>   H          -2.18665487981257     -2.02851671118594     -2.36303903241120
| 40> **                         ****END OF INPUT****

CARTESIAN COORDINATES (ANGSTROEM)
---------------------------------
  C      3.836653   -1.590307   -0.956630
  C      2.873732   -2.524318   -0.535940
  C      1.744607   -2.101436    0.180134
  C      1.553864   -0.734095    0.477547
  C      2.527966    0.196171    0.058498
  C      3.660951   -0.230453   -0.653693
  P      0.128912   -0.219557    1.534570
  C     -0.186034    1.495324    0.900604
  C     -0.363581    1.772202   -0.473220
  C     -0.596645    3.087488   -0.899762
  C     -0.651194    4.137219    0.036259
  C     -0.474375    3.868228    1.402758
  C     -0.244190    2.549778    1.833886
  C     -1.267008   -1.119935    0.665516
  C     -2.338605   -1.587603    1.454300
  C     -3.410875   -2.238314    0.824492
  C     -3.369976   -2.408217   -0.567181
  C     -2.254276   -1.912456   -1.266302
  N     -1.229366   -1.283558   -0.671785
  H      4.721780   -1.923084   -1.520202
  H      3.001733   -3.592578   -0.770538
  H      0.997090   -2.843097    0.502480
  H      2.394376    1.265901    0.280415
  H      4.409054    0.509197   -0.979104
  H     -0.325518    0.940322   -1.193713
  H     -0.736572    3.298337   -1.971568
  H     -0.831958    5.169018   -0.303109
  H     -0.515212    4.687045    2.137722
  H     -0.104533    2.332119    2.904876
  H     -2.318295   -1.440215    2.545006
  H     -4.262545   -2.613448    1.413156
  H     -4.183305   -2.917162   -1.106025
  H     -2.186655   -2.028517   -2.363039

 Total Charge           Charge          ....    0
 Multiplicity           Mult            ....    1
 Number of Electrons    NEL             ....  138
 Basis Dimension        Dim             ....  679

ORBITAL ENERGIES
----------------

  NO   OCC          E(Eh)            E(eV)
   0   2.0000     -78.030095     -2123.3068
   1   2.0000     -14.758133      -401.5892
   2   2.0000     -10.589115      -288.1445
   3   2.0000     -10.588224      -288.1202
   4   2.0000     -10.572565      -287.6941
   5   2.0000     -10.563707      -287.4531
   6   2.0000     -10.562676      -287.4250
   7   2.0000     -10.552054      -287.1360
   8   2.0000     -10.551003      -287.1074
   9   2.0000     -10.550843      -287.1030
  10   2.0000     -10.549490      -287.0662
  11   2.0000     -10.548467      -287.0384
  12   2.0000     -10.547491      -287.0118
  13   2.0000     -10.545341      -286.9533
  14   2.0000     -10.544311      -286.9253
  15   2.0000     -10.543151      -286.8937
  16   2.0000     -10.542923      -286.8875
  17   2.0000     -10.542412      -286.8736
  18   2.0000     -10.541893      -286.8595
  19   2.0000      -6.846314      -186.2977
  20   2.0000      -4.960884      -134.9925
  21   2.0000      -4.960547      -134.9833
  22   2.0000      -4.960413      -134.9797
  23   2.0000      -1.054218       -28.6867
  24   2.0000      -0.955087       -25.9892
  25   2.0000      -0.947203       -25.7747
  26   2.0000      -0.906819       -24.6758
  27   2.0000      -0.871259       -23.7082
  28   2.0000      -0.846252       -23.0277
  29   2.0000      -0.838451       -22.8154
  30   2.0000      -0.833371       -22.6772
  31   2.0000      -0.829374       -22.5684
  32   2.0000      -0.740694       -20.1553
  33   2.0000      -0.718076       -19.5398
  34   2.0000      -0.695581       -18.9277
  35   2.0000      -0.684100       -18.6153
  36   2.0000      -0.678734       -18.4693
  37   2.0000      -0.670682       -18.2502
  38   2.0000      -0.635054       -17.2807
  39   2.0000      -0.592259       -16.1162
  40   2.0000      -0.584142       -15.8953
  41   2.0000      -0.568042       -15.4572
  42   2.0000      -0.554218       -15.0810
  43   2.0000      -0.531389       -14.4598
  44   2.0000      -0.520426       -14.1615
  45   2.0000      -0.514493       -14.0001
  46   2.0000      -0.509579       -13.8663
  47   2.0000      -0.507084       -13.7985
  48   2.0000      -0.487538       -13.2666
  49   2.0000      -0.485559       -13.2127
  50   2.0000      -0.482207       -13.1215
  51   2.0000      -0.478155       -13.0113
  52   2.0000      -0.465046       -12.6545
  53   2.0000      -0.457112       -12.4386
  54   2.0000      -0.440813       -11.9951
  55   2.0000      -0.431293       -11.7361
  56   2.0000      -0.428858       -11.6698
  57   2.0000      -0.401327       -10.9207
  58   2.0000      -0.398810       -10.8522
  59   2.0000      -0.390665       -10.6305
  60   2.0000      -0.376274       -10.2389
  61   2.0000      -0.352315        -9.5870
  62   2.0000      -0.334608        -9.1051
  63   2.0000      -0.324381        -8.8269
  64   2.0000      -0.320024        -8.7083
  65   2.0000      -0.307440        -8.3659
  66   2.0000      -0.304307        -8.2806
  67   2.0000      -0.297017        -8.0822
  68   2.0000      -0.270032        -7.3479
  69   0.0000      -0.020007        -0.5444
  70   0.0000      -0.000583        -0.0159
  71   0.0000       0.003612         0.0983
  72   0.0000       0.015158         0.4125
  73   0.0000       0.018201         0.4953

MULLIKEN ATOMIC CHARGES
-----------------------
   0 C :   -0.145696
   1 C :   -0.155344
   2 C :   -0.184545
   3 C :    0.022915
   4 C :   -0.164013
   5 C :   -0.161556
   6 P :    0.132402
   7 C :   -0.096221
   8 C :   -0.180923
   9 C :   -0.144375
  10 C :   -0.136725
  11 C :   -0.152618
  12 C :   -0.126458
  13 C :    0.045225
  14 C :   -0.160736
  15 C :   -0.105894
  16 C :   -0.143206
  17 C :   -0.061911
  18 N :   -0.257180
  19 H :    0.141870
  20 H :    0.140322
  21 H :    0.164829
  22 H :    0.182861
  23 H :    0.142359
  24 H :    0.205158
  25 H :    0.145759
  26 H :    0.145340
  27 H :    0.143974
  28 H :    0.154944
  29 H :    0.159665
  30 H :    0.153948
  31 H :    0.149711
  32 H :    0.146121
Sum of atomic charges:    0.0000000

LOEWDIN ATOMIC CHARGES
----------------------
   0 C :   -0.146343
   1 C :   -0.145300
   2 C :   -0.136869
   3 C :   -0.271432
   4 C :   -0.137697
   5 C :   -0.145211
   6 P :    0.697092
   7 C :   -0.279735
   8 C :   -0.125822
   9 C :   -0.142807
  10 C :   -0.138687
  11 C :   -0.146129
  12 C :   -0.146853
  13 C :   -0.335826
  14 C :   -0.149546
  15 C :   -0.120632
  16 C :   -0.148052
  17 C :   -0.198316
  18 N :    0.131111
  19 H :    0.145633
  20 H :    0.146449
  21 H :    0.150191
  22 H :    0.154870
  23 H :    0.146760
  24 H :    0.159751
  25 H :    0.147559
  26 H :    0.146904
  27 H :    0.147021
  28 H :    0.147764
  29 H :    0.151465
  30 H :    0.150809
  31 H :    0.149691
  32 H :    0.142186

  Mayer bond orders larger than 0.100000
B(  0-C ,  1-C ) :   1.4315 B(  0-C ,  5-C ) :   1.4455 B(  0-C , 19-H ) :   0.9471
B(  1-C ,  2-C ) :   1.4790 B(  1-C , 20-H ) :   0.9465 B(  2-C ,  3-C ) :   1.3673
B(  2-C , 21-H ) :   0.9246 B(  3-C ,  4-C ) :   1.3580 B(  3-C ,  6-P ) :   0.9694
B(  4-C ,  5-C ) :   1.4600 B(  4-C , 22-H ) :   0.9250 B(  5-C , 23-H ) :   0.9454
B(  6-P ,  7-C ) :   0.9414 B(  6-P , 13-C ) :   0.9595 B(  7-C ,  8-C ) :   1.3294
B(  7-C , 12-C ) :   1.4091 B(  8-C ,  9-C ) :   1.4639 B(  8-C , 24-H ) :   0.9138
B(  9-C , 10-C ) :   1.4182 B(  9-C , 25-H ) :   0.9447 B( 10-C , 11-C ) :   1.4552
B( 10-C , 26-H ) :   0.9471 B( 11-C , 12-C ) :   1.4484 B( 11-C , 27-H ) :   0.9498
B( 12-C , 28-H ) :   0.9248 B( 13-C , 14-C ) :   1.4263 B( 13-C , 18-N ) :   1.2520
B( 14-C , 15-C ) :   1.4339 B( 14-C , 29-H ) :   0.9245 B( 15-C , 16-C ) :   1.4349
B( 15-C , 30-H ) :   0.9481 B( 16-C , 17-C ) :   1.3748 B( 16-C , 31-H ) :   0.9483
B( 17-C , 18-N ) :   1.5050 B( 17-C , 32-H ) :   0.9724

Dispersion correction           -0.001983551
FINAL SINGLE POINT ENERGY     -1052.279621974616

DIPOLE MOMENT
-------------

Method             : SCF
Type of density    : Electron Density
Multiplicity       :   1
Irrep              :   0
Energy             : -1052.2776384237699858 Eh
Relativity type    :
Basis              : AO
                                X                 Y                 Z
Electronic contribution:     -0.790345734      -1.894814649       4.671311427
Nuclear contribution   :     -0.035335743       1.725487515      -4.911930707
                        -----------------------------------------
Total Dipole Moment    :     -0.825681477      -0.169327133      -0.240619280
                        -----------------------------------------
Magnitude (a.u.)       :      0.876538201
Magnitude (Debye)      :      2.227983046

Rotational constants in cm-1:             0.012076             0.011818             0.007197
Rotational constants in MHz :           362.022106           354.292372           215.766216

                             ****ORCA TERMINATED NORMALLY****
TOTAL RUN TIME: 0 days 0 hours 1 minutes 51 seconds 167 msec
