                         Program Version 6.0.0  -   RELEASE   -
|  1> ! RIJCOSX M062X def2-TZVP D3ZERO NormalSCF
|  2> %pal
|  3> nprocs 6
|  4> end
|  5>
|  6> * xyz 0 1
|  7>   C           5.17623912403149     -1.59762300596582      0.57097875380319
|  8>   C           4.20458565833484     -2.49719248113097      1.04018844776496
|  9>   C           2.94394377954967     -2.02521374920676      1.43933133548637
| 10>   C           2.63489570093337     -0.64969087461306      1.38019023773052
| 11>   C           3.62062311990657      0.24925691562709      0.91439805161055
| 12>   C           4.87853105288707     -0.22577267163876      0.51073161958785
| 13>   C           1.26955165660959     -0.15890774120441      1.80888425145538
| 14>   P           0.51155314306930      1.07041873018790      0.64917666936786
| 15>   O           1.30103282528324      2.36842078036296      0.54374014096571
| 16>   C           0.32127278985162      0.22224238635808     -0.99055734118057
| 17>   C          -0.43133627446447     -1.08054908818685     -0.94999062913417
| 18>   C           0.24710684367095     -2.29800005469986     -0.72538033817573
| 19>   C          -0.46011760843830     -3.50579092700685     -0.62109652514487
| 20>   C          -1.85983485043359     -3.51933791268970     -0.74512244858050
| 21>   C          -2.54347427318495     -2.31634310246196     -0.99016398136690
| 22>   C          -1.83527494686017     -1.10893544716141     -1.09398524689764
| 23>   C          -1.19298773971658      1.30602988954999      1.33559474469091
| 24>   C          -2.09798961110413      2.13952597689849      0.45575914234163
| 25>   C          -3.42077029203720      1.72083165620487      0.19862435305084
| 26>   C          -4.26926094677866      2.48112120341526     -0.62210533666335
| 27>   C          -3.80436308799156      3.67301481689304     -1.20218096851808
| 28>   C          -2.48962010093062      4.09964782315285     -0.94960132421122
| 29>   C          -1.64103916766150      3.34400090537447     -0.12523479814511
| 30>   H           6.16411359712065     -1.96561452379783      0.25406944635679
| 31>   H           4.42760647876671     -3.57395290065245      1.09510117082401
| 32>   H           2.18296205214308     -2.73361227589459      1.80368246855511
| 33>   H           3.37454333686081      1.32063697277356      0.85198010551750
| 34>   H           5.63412274485488      0.48617094710120      0.14407344810123
| 35>   H           0.56851846990987     -1.00687270208315      1.94709604717116
| 36>   H           1.32773349647873      0.38929113005252      2.77539126548518
| 37>   H          -0.17347861088538      0.97749748441238     -1.63485261209599
| 38>   H           1.36084227776253      0.09790046113614     -1.35666229067525
| 39>   H           1.34372067246935     -2.29390386177088     -0.63400471175922
| 40>   H           0.08846348594277     -4.44467693598441     -0.44806006807013
| 41>   H          -2.41499001330799     -4.46630267312414     -0.66360987514016
| 42>   H          -3.63817857503639     -2.31725048169217     -1.10852429164851
| 43>   H          -2.37542451284481     -0.17137718110203     -1.29473653622770
| 44>   H          -1.01601357934130      1.80673918820442      2.31332215506042
| 45>   H          -1.64284220077758      0.31440949024102      1.54563313953957
| 46>   H          -3.78830165682472      0.78594303278730      0.65091418972343
| 47>   H          -5.29891385300718      2.13923796072756     -0.80944159849759
| 48>   H          -4.46665286371666      4.26894307693560     -1.84868354139233
| 49>   H          -2.11729748525875      5.03275904802424     -1.40003433733174
| 50>   H          -0.60379805583463      3.66288271564713      0.06149761666660
| 51> **                         ****END OF INPUT****

CARTESIAN COORDINATES (ANGSTROEM)
---------------------------------
  C      5.176239   -1.597623    0.570979
  C      4.204586   -2.497192    1.040188
  C      2.943944   -2.025214    1.439331
  C      2.634896   -0.649691    1.380190
  C      3.620623    0.249257    0.914398
  C      4.878531   -0.225773    0.510732
  C      1.269552   -0.158908    1.808884
  P      0.511553    1.070419    0.649177
  O      1.301033    2.368421    0.543740
  C      0.321273    0.222242   -0.990557
  C     -0.431336   -1.080549   -0.949991
  C      0.247107   -2.298000   -0.725380
  C     -0.460118   -3.505791   -0.621097
  C     -1.859835   -3.519338   -0.745122
  C     -2.543474   -2.316343   -0.990164
  C     -1.835275   -1.108935   -1.093985
  C     -1.192988    1.306030    1.335595
  C     -2.097990    2.139526    0.455759
  C     -3.420770    1.720832    0.198624
  C     -4.269261    2.481121   -0.622105
  C     -3.804363    3.673015   -1.202181
  C     -2.489620    4.099648   -0.949601
  C     -1.641039    3.344001   -0.125235
  H      6.164114   -1.965615    0.254069
  H      4.427606   -3.573953    1.095101
  H      2.182962   -2.733612    1.803682
  H      3.374543    1.320637    0.851980
  H      5.634123    0.486171    0.144073
  H      0.568518   -1.006873    1.947096
  H      1.327733    0.389291    2.775391
  H     -0.173479    0.977497   -1.634853
  H      1.360842    0.097900   -1.356662
  H      1.343721   -2.293904   -0.634005
  H      0.088463   -4.444677   -0.448060
  H     -2.414990   -4.466303   -0.663610
  H     -3.638179   -2.317250   -1.108524
  H     -2.375425   -0.171377   -1.294737
  H     -1.016014    1.806739    2.313322
  H     -1.642842    0.314409    1.545633
  H     -3.788302    0.785943    0.650914
  H     -5.298914    2.139238   -0.809442
  H     -4.466653    4.268943   -1.848684
  H     -2.117297    5.032759   -1.400034
  H     -0.603798    3.662883    0.061498

 Total Charge           Charge          ....    0
 Multiplicity           Mult            ....    1
 Number of Electrons    NEL             ....  170
 Basis Dimension        Dim             ....  845

ORBITAL ENERGIES
----------------

  NO   OCC          E(Eh)            E(eV)
   0   2.0000     -78.097334     -2125.1365
   1   2.0000     -19.568339      -532.4816
   2   2.0000     -10.568006      -287.5701
   3   2.0000     -10.564983      -287.4878
   4   2.0000     -10.564646      -287.4786
   5   2.0000     -10.560588      -287.3682
   6   2.0000     -10.560434      -287.3640
   7   2.0000     -10.557158      -287.2749
   8   2.0000     -10.556149      -287.2474
   9   2.0000     -10.555978      -287.2428
  10   2.0000     -10.554565      -287.2043
  11   2.0000     -10.552896      -287.1589
  12   2.0000     -10.552733      -287.1545
  13   2.0000     -10.552391      -287.1451
  14   2.0000     -10.552027      -287.1353
  15   2.0000     -10.551664      -287.1254
  16   2.0000     -10.551302      -287.1155
  17   2.0000     -10.549805      -287.0748
  18   2.0000     -10.549552      -287.0679
  19   2.0000     -10.548933      -287.0511
  20   2.0000     -10.548622      -287.0426
  21   2.0000     -10.543789      -286.9111
  22   2.0000     -10.543417      -286.9010
  23   2.0000      -6.903860      -187.8636
  24   2.0000      -5.020753      -136.6216
  25   2.0000      -5.020695      -136.6201
  26   2.0000      -5.019028      -136.5747
  27   2.0000      -1.064620       -28.9698
  28   2.0000      -0.967420       -26.3248
  29   2.0000      -0.961296       -26.1582
  30   2.0000      -0.960797       -26.1446
  31   2.0000      -0.894144       -24.3309
  32   2.0000      -0.874596       -23.7990
  33   2.0000      -0.873545       -23.7704
  34   2.0000      -0.846187       -23.0259
  35   2.0000      -0.840614       -22.8743
  36   2.0000      -0.840216       -22.8634
  37   2.0000      -0.810994       -22.0683
  38   2.0000      -0.782819       -21.3016
  39   2.0000      -0.775552       -21.1038
  40   2.0000      -0.694723       -18.9044
  41   2.0000      -0.689564       -18.7640
  42   2.0000      -0.688958       -18.7475
  43   2.0000      -0.682121       -18.5614
  44   2.0000      -0.672417       -18.2974
  45   2.0000      -0.662776       -18.0351
  46   2.0000      -0.615236       -16.7414
  47   2.0000      -0.590269       -16.0620
  48   2.0000      -0.583382       -15.8746
  49   2.0000      -0.581576       -15.8255
  50   2.0000      -0.544628       -14.8201
  51   2.0000      -0.542315       -14.7572
  52   2.0000      -0.535456       -14.5705
  53   2.0000      -0.534342       -14.5402
  54   2.0000      -0.532319       -14.4851
  55   2.0000      -0.526289       -14.3210
  56   2.0000      -0.503916       -13.7123
  57   2.0000      -0.500990       -13.6326
  58   2.0000      -0.490789       -13.3551
  59   2.0000      -0.490582       -13.3494
  60   2.0000      -0.485578       -13.2132
  61   2.0000      -0.484616       -13.1871
  62   2.0000      -0.482403       -13.1268
  63   2.0000      -0.471037       -12.8176
  64   2.0000      -0.466404       -12.6915
  65   2.0000      -0.460082       -12.5195
  66   2.0000      -0.444910       -12.1066
  67   2.0000      -0.437581       -11.9072
  68   2.0000      -0.431297       -11.7362
  69   2.0000      -0.421607       -11.4725
  70   2.0000      -0.421296       -11.4640
  71   2.0000      -0.410404       -11.1676
  72   2.0000      -0.408578       -11.1180
  73   2.0000      -0.407398       -11.0859
  74   2.0000      -0.403476       -10.9791
  75   2.0000      -0.400191       -10.8898
  76   2.0000      -0.399775       -10.8784
  77   2.0000      -0.346389        -9.4257
  78   2.0000      -0.333857        -9.0847
  79   2.0000      -0.316346        -8.6082
  80   2.0000      -0.310356        -8.4452
  81   2.0000      -0.308880        -8.4051
  82   2.0000      -0.307935        -8.3793
  83   2.0000      -0.293713        -7.9923
  84   2.0000      -0.293163        -7.9774
  85   0.0000       0.002629         0.0715
  86   0.0000       0.004047         0.1101
  87   0.0000       0.005501         0.1497
  88   0.0000       0.013839         0.3766
  89   0.0000       0.017584         0.4785

MULLIKEN ATOMIC CHARGES
-----------------------
   0 C :   -0.155942
   1 C :   -0.125002
   2 C :   -0.278637
   3 C :    0.119598
   4 C :   -0.202021
   5 C :   -0.141602
   6 C :   -0.461749
   7 P :    0.679893
   8 O :   -0.618115
   9 C :   -0.585311
  10 C :    0.177377
  11 C :   -0.251184
  12 C :   -0.144874
  13 C :   -0.155149
  14 C :   -0.147608
  15 C :   -0.250758
  16 C :   -0.464896
  17 C :    0.124909
  18 C :   -0.281488
  19 C :   -0.124050
  20 C :   -0.156774
  21 C :   -0.140368
  22 C :   -0.207959
  23 H :    0.145412
  24 H :    0.144547
  25 H :    0.170194
  26 H :    0.213146
  27 H :    0.148130
  28 H :    0.202186
  29 H :    0.192426
  30 H :    0.225847
  31 H :    0.224388
  32 H :    0.231999
  33 H :    0.146634
  34 H :    0.146086
  35 H :    0.145599
  36 H :    0.236873
  37 H :    0.194021
  38 H :    0.201377
  39 H :    0.171588
  40 H :    0.144520
  41 H :    0.145175
  42 H :    0.148764
  43 H :    0.212795
Sum of atomic charges:   -0.0000000

LOEWDIN ATOMIC CHARGES
----------------------
   0 C :   -0.146371
   1 C :   -0.147997
   2 C :   -0.131178
   3 C :   -0.177748
   4 C :   -0.112575
   5 C :   -0.139578
   6 C :   -0.316816
   7 P :    0.606865
   8 O :   -0.329930
   9 C :   -0.310114
  10 C :   -0.173360
  11 C :   -0.117340
  12 C :   -0.144067
  13 C :   -0.146265
  14 C :   -0.143921
  15 C :   -0.117867
  16 C :   -0.316865
  17 C :   -0.177942
  18 C :   -0.131774
  19 C :   -0.147701
  20 C :   -0.146286
  21 C :   -0.139493
  22 C :   -0.112762
  23 H :    0.146744
  24 H :    0.147226
  25 H :    0.150210
  26 H :    0.163905
  27 H :    0.149068
  28 H :    0.152836
  29 H :    0.159084
  30 H :    0.160864
  31 H :    0.160831
  32 H :    0.158938
  33 H :    0.148207
  34 H :    0.147069
  35 H :    0.148128
  36 H :    0.158773
  37 H :    0.159423
  38 H :    0.152497
  39 H :    0.150111
  40 H :    0.147284
  41 H :    0.146813
  42 H :    0.149145
  43 H :    0.163931

  Mayer bond orders larger than 0.100000
B(  0-C ,  1-C ) :   1.4412 B(  0-C ,  5-C ) :   1.4351 B(  0-C , 23-H ) :   0.9477
B(  1-C ,  2-C ) :   1.4730 B(  1-C , 24-H ) :   0.9503 B(  2-C ,  3-C ) :   1.3707
B(  2-C , 25-H ) :   0.9459 B(  3-C ,  4-C ) :   1.3957 B(  3-C ,  6-C ) :   0.8998
B(  4-C ,  5-C ) :   1.4628 B(  4-C , 26-H ) :   0.8994 B(  5-C , 27-H ) :   0.9497
B(  6-C ,  7-P ) :   0.9006 B(  6-C , 28-H ) :   0.9741 B(  6-C , 29-H ) :   0.9148
B(  7-P ,  8-O ) :   1.8358 B(  7-P ,  9-C ) :   0.8742 B(  7-P , 16-C ) :   0.9017
B(  9-C , 10-C ) :   0.7710 B(  9-C , 30-H ) :   0.9591 B(  9-C , 31-H ) :   0.9602
B( 10-C , 11-C ) :   1.3639 B( 10-C , 15-C ) :   1.3647 B( 11-C , 12-C ) :   1.4761
B( 11-C , 32-H ) :   0.9158 B( 12-C , 13-C ) :   1.4440 B( 12-C , 33-H ) :   0.9483
B( 13-C , 14-C ) :   1.4440 B( 13-C , 34-H ) :   0.9499 B( 14-C , 15-C ) :   1.4782
B( 14-C , 35-H ) :   0.9491 B( 15-C , 36-H ) :   0.9128 B( 16-C , 17-C ) :   0.9006
B( 16-C , 37-H ) :   0.9141 B( 16-C , 38-H ) :   0.9732 B( 17-C , 18-C ) :   1.3710
B( 17-C , 22-C ) :   1.3942 B( 18-C , 19-C ) :   1.4736 B( 18-C , 39-H ) :   0.9453
B( 19-C , 20-C ) :   1.4410 B( 19-C , 40-H ) :   0.9504 B( 20-C , 21-C ) :   1.4348
B( 20-C , 41-H ) :   0.9480 B( 21-C , 22-C ) :   1.4639 B( 21-C , 42-H ) :   0.9488
B( 22-C , 43-H ) :   0.9008

Dispersion correction           -0.003431682
FINAL SINGLE POINT ENERGY     -1229.450724574223

DIPOLE MOMENT
-------------

Method             : SCF
Type of density    : Electron Density
Multiplicity       :   1
Irrep              :   0
Energy             : -1229.4472928924349162 Eh
Relativity type    :
Basis              : AO
                                X                 Y                 Z
Electronic contribution:      2.248730403       4.122838030       0.828880907
Nuclear contribution   :     -2.997511602      -5.348800769      -0.743119259
                        -----------------------------------------
Total Dipole Moment    :     -0.748781200      -1.225962739       0.085761648
                        -----------------------------------------
Magnitude (a.u.)       :      1.439101450
Magnitude (Debye)      :      3.657905186

Rotational constants in cm-1:             0.012824             0.005604             0.004222
Rotational constants in MHz :           384.451467           167.992624           126.575015

                             ****ORCA TERMINATED NORMALLY****
TOTAL RUN TIME: 0 days 0 hours 3 minutes 10 seconds 417 msec
