                         Program Version 6.0.0  -   RELEASE   -
|  1> ! RI BP86 def2-SVP D3BJ TIGHTSCF Opt
|  2> %pal
|  3> nprocs 6
|  4> end
|  5>
|  6> * xyz 0 1
|  7> C     -1.882071   -3.461617    0.572196
|  8> C     -1.596128   -2.360058    1.374976
|  9> C     -1.010959   -1.220137    0.817890
| 10> C     -0.705455   -1.166350   -0.549853
| 11> C     -0.999797   -2.283823   -1.345200
| 12> C     -1.584377   -3.424015   -0.787804
| 13> P      0.068448    0.290059   -1.334932
| 14> C      1.616476    0.466242   -0.329726
| 15> C      2.583476   -0.702130   -0.550145
| 16> C      3.924560   -0.497096    0.156202
| 17> N      3.772381   -0.423969    1.604500
| 18> C     -1.001949    1.646886   -0.733020
| 19> C     -0.488473    2.825116   -0.172328
| 20> C     -1.338569    3.849900    0.257810
| 21> C     -2.717519    3.719599    0.122507
| 22> C     -3.247432    2.567916   -0.449804
| 23> C     -2.396708    1.545291   -0.879369
| 24> H     -2.338584   -4.347376    1.005705
| 25> H     -1.830374   -2.383620    2.435974
| 26> H     -0.803352   -0.371073    1.465625
| 27> H     -0.776699   -2.276773   -2.410153
| 28> H     -1.807528   -4.281049   -1.417687
| 29> H      1.372287    0.564138    0.733195
| 30> H      2.116886    1.391348   -0.637618
| 31> H      2.134814   -1.643182   -0.207448
| 32> H      2.779432   -0.825508   -1.623324
| 33> H      4.400900    0.421599   -0.202765
| 34> H      4.592415   -1.329701   -0.090985
| 35> H      4.693393   -0.370877    2.038647
| 36> H      3.347978   -1.286379    1.946659
| 37> H      0.581275    2.976169   -0.061498
| 38> H     -0.918773    4.752419    0.694504
| 39> H     -3.376686    4.516469    0.455651
| 40> H     -4.322512    2.461599   -0.567155
| 41> H     -2.840775    0.659983   -1.331225
| 42> **                         ****END OF INPUT****
 Total Charge           Charge          ....    0
 Multiplicity           Mult            ....    1
 Number of Electrons    NEL             ....  130
Dispersion correction           -0.073110133
FINAL SINGLE POINT ENERGY      -978.065983380836
Dispersion correction             ... done (  0.1 sec)
Dispersion correction           -0.073319500
FINAL SINGLE POINT ENERGY      -978.071902323783
Dispersion correction             ... done (  0.1 sec)
Dispersion correction           -0.073647567
FINAL SINGLE POINT ENERGY      -978.072832837235
Dispersion correction             ... done (  0.1 sec)
FINAL SINGLE POINT ENERGY      -978.073154814849
FINAL SINGLE POINT ENERGY      -978.073318187176
FINAL SINGLE POINT ENERGY      -978.073399123571
FINAL SINGLE POINT ENERGY      -978.073443197510
FINAL SINGLE POINT ENERGY      -978.073458875260
FINAL SINGLE POINT ENERGY      -978.073464148115
Dispersion correction             ... done (  0.1 sec)
Dispersion correction           -0.073735630
FINAL SINGLE POINT ENERGY      -978.073466219698
Dispersion correction             ... done (  0.1 sec)
Dispersion correction           -0.073717170
FINAL SINGLE POINT ENERGY      -978.073467077353
Dispersion correction             ... done (  0.1 sec)
                    ***********************HURRAY********************

CARTESIAN COORDINATES (ANGSTROEM)
---------------------------------
  C     -1.615781   -3.415439    0.797429
  C     -1.541514   -2.177635    1.462387
  C     -1.080768   -1.039415    0.784285
  C     -0.688072   -1.123597   -0.569340
  C     -0.772968   -2.366693   -1.229797
  C     -1.230413   -3.508850   -0.549504
  P     -0.002807    0.328823   -1.506542
  C      1.613307    0.522271   -0.578311
  C      2.559075   -0.663006   -0.803652
  C      3.781845   -0.627888    0.124610
  N      3.366017   -0.644463    1.529113
  C     -1.024513    1.680807   -0.762965
  C     -0.504125    2.718645    0.038552
  C     -1.345109    3.733463    0.529230
  C     -2.716904    3.722552    0.234062
  C     -3.246346    2.692148   -0.564409
  C     -2.406647    1.688240   -1.064926
  H     -1.980296   -4.307057    1.330712
  H     -1.847438   -2.099996    2.517474
  H     -1.029454   -0.070555    1.305552
  H     -0.477612   -2.434458   -2.289308
  H     -1.291770   -4.473785   -1.076420
  H      1.429610    0.630234    0.511651
  H      2.090116    1.461961   -0.933443
  H      2.010711   -1.616313   -0.626773
  H      2.897440   -0.700235   -1.861245
  H      4.347640    0.313902   -0.052948
  H      4.470014   -1.462676   -0.168747
  H      4.183020   -0.561201    2.146492
  H      2.932910   -1.551460    1.752049
  H      0.565077    2.739343    0.294262
  H     -0.921703    4.535409    1.154057
  H     -3.374129    4.515419    0.622850
  H     -4.321340    2.674760   -0.802294
  H     -2.827074    0.886741   -1.694143

 Multiplicity           Mult            ....    1
 Number of Electrons    NEL             ....  130
 Basis Dimension        Dim             ....  332

ORBITAL ENERGIES
----------------

  NO   OCC          E(Eh)            E(eV)
   0   2.0000     -76.335443     -2077.1930
   1   2.0000     -13.993960      -380.7950
   2   2.0000      -9.935927      -270.3703
   3   2.0000      -9.922082      -269.9936
   4   2.0000      -9.921431      -269.9759
   5   2.0000      -9.921244      -269.9708
   6   2.0000      -9.921090      -269.9666
   7   2.0000      -9.920751      -269.9574
   8   2.0000      -9.920340      -269.9462
   9   2.0000      -9.919712      -269.9291
  10   2.0000      -9.917871      -269.8790
  11   2.0000      -9.917673      -269.8736
  12   2.0000      -9.917504      -269.8690
  13   2.0000      -9.917313      -269.8638
  14   2.0000      -9.916913      -269.8529
  15   2.0000      -9.912769      -269.7402
  16   2.0000      -9.909992      -269.6646
  17   2.0000      -6.304409      -171.5517
  18   2.0000      -4.526047      -123.1600
  19   2.0000      -4.525629      -123.1486
  20   2.0000      -4.522181      -123.0548
  21   2.0000      -0.795084       -21.6353
  22   2.0000      -0.772168       -21.0118
  23   2.0000      -0.765909       -20.8414
  24   2.0000      -0.702030       -19.1032
  25   2.0000      -0.675653       -18.3854
  26   2.0000      -0.668399       -18.1881
  27   2.0000      -0.665121       -18.0989
  28   2.0000      -0.662313       -18.0224
  29   2.0000      -0.606788       -16.5115
  30   2.0000      -0.559318       -15.2198
  31   2.0000      -0.540925       -14.7193
  32   2.0000      -0.537185       -14.6175
  33   2.0000      -0.530523       -14.4363
  34   2.0000      -0.516479       -14.0541
  35   2.0000      -0.491128       -13.3643
  36   2.0000      -0.461200       -12.5499
  37   2.0000      -0.446067       -12.1381
  38   2.0000      -0.440058       -11.9746
  39   2.0000      -0.412601       -11.2275
  40   2.0000      -0.405064       -11.0224
  41   2.0000      -0.402178       -10.9438
  42   2.0000      -0.398306       -10.8384
  43   2.0000      -0.393059       -10.6957
  44   2.0000      -0.382386       -10.4052
  45   2.0000      -0.374511       -10.1910
  46   2.0000      -0.370681       -10.0867
  47   2.0000      -0.368156       -10.0180
  48   2.0000      -0.361053        -9.8248
  49   2.0000      -0.343020        -9.3340
  50   2.0000      -0.329498        -8.9661
  51   2.0000      -0.326958        -8.8970
  52   2.0000      -0.320946        -8.7334
  53   2.0000      -0.306141        -8.3305
  54   2.0000      -0.302898        -8.2423
  55   2.0000      -0.301455        -8.2030
  56   2.0000      -0.295868        -8.0510
  57   2.0000      -0.279831        -7.6146
  58   2.0000      -0.274594        -7.4721
  59   2.0000      -0.239419        -6.5149
  60   2.0000      -0.232282        -6.3207
  61   2.0000      -0.231082        -6.2881
  62   2.0000      -0.227018        -6.1775
  63   2.0000      -0.196316        -5.3420
  64   2.0000      -0.188022        -5.1163
  65   0.0000      -0.054522        -1.4836
  66   0.0000      -0.047598        -1.2952
  67   0.0000      -0.045064        -1.2263
  68   0.0000      -0.036302        -0.9878
  69   0.0000       0.025909         0.7050

MULLIKEN ATOMIC CHARGES
-----------------------
   0 C :    0.000975
   1 C :    0.001019
   2 C :    0.025781
   3 C :   -0.150362
   4 C :    0.011050
   5 C :   -0.004757
   6 P :    0.225904
   7 C :   -0.187608
   8 C :   -0.016271
   9 C :    0.049022
  10 N :   -0.230926
  11 C :   -0.130081
  12 C :   -0.020817
  13 C :    0.004704
  14 C :    0.000312
  15 C :   -0.001599
  16 C :    0.011390
  17 H :    0.003855
  18 H :    0.002297
  19 H :    0.013824
  20 H :   -0.001562
  21 H :    0.003143
  22 H :    0.060177
  23 H :    0.054299
  24 H :    0.027090
  25 H :    0.023726
  26 H :    0.012023
  27 H :    0.006097
  28 H :    0.101043
  29 H :    0.101950
  30 H :   -0.000821
  31 H :   -0.000578
  32 H :    0.001645
  33 H :    0.002459
  34 H :    0.001601
Sum of atomic charges:   -0.0000000

LOEWDIN ATOMIC CHARGES
----------------------
   0 C :   -0.030082
   1 C :   -0.032185
   2 C :   -0.026120
   3 C :   -0.169675
   4 C :   -0.039660
   5 C :   -0.034520
   6 P :    0.477439
   7 C :   -0.182008
   8 C :   -0.062399
   9 C :    0.002881
  10 N :   -0.121887
  11 C :   -0.172196
  12 C :   -0.046502
  13 C :   -0.031412
  14 C :   -0.034674
  15 C :   -0.031138
  16 C :   -0.032991
  17 H :    0.032235
  18 H :    0.032705
  19 H :    0.034867
  20 H :    0.028491
  21 H :    0.032574
  22 H :    0.023533
  23 H :    0.027661
  24 H :    0.025405
  25 H :    0.029302
  26 H :    0.020743
  27 H :    0.003721
  28 H :    0.060065
  29 H :    0.059034
  30 H :    0.030027
  31 H :    0.031846
  32 H :    0.031586
  33 H :    0.032665
  34 H :    0.030669

  Mayer bond orders larger than 0.100000
B(  0-C ,  1-C ) :   1.3668 B(  0-C ,  5-C ) :   1.3895 B(  0-C , 17-H ) :   0.9758
B(  1-C ,  2-C ) :   1.4004 B(  1-C , 18-H ) :   0.9749 B(  2-C ,  3-C ) :   1.3688
B(  2-C , 19-H ) :   0.9643 B(  3-C ,  4-C ) :   1.3768 B(  3-C ,  6-P ) :   0.9318
B(  4-C ,  5-C ) :   1.3781 B(  4-C , 20-H ) :   0.9741 B(  5-C , 21-H ) :   0.9768
B(  6-P ,  7-C ) :   0.9793 B(  6-P , 11-C ) :   0.9201 B(  7-C ,  8-C ) :   1.0574
B(  7-C , 22-H ) :   0.9022 B(  7-C , 23-H ) :   0.9276 B(  8-C ,  9-C ) :   1.0928
B(  8-C , 24-H ) :   0.9302 B(  8-C , 25-H ) :   0.9300 B(  9-C , 10-N ) :   1.0867
B(  9-C , 26-H ) :   0.9366 B(  9-C , 27-H ) :   0.9298 B( 10-N , 28-H ) :   0.9615
B( 10-N , 29-H ) :   0.9633 B( 11-C , 12-C ) :   1.3824 B( 11-C , 16-C ) :   1.3600
B( 12-C , 13-C ) :   1.3782 B( 12-C , 30-H ) :   0.9669 B( 13-C , 14-C ) :   1.3904
B( 13-C , 31-H ) :   0.9731 B( 14-C , 15-C ) :   1.3658 B( 14-C , 32-H ) :   0.9757
B( 15-C , 16-C ) :   1.4192 B( 15-C , 33-H ) :   0.9754 B( 16-C , 34-H ) :   0.9703

Dispersion correction           -0.073713445
FINAL SINGLE POINT ENERGY      -978.073467330486

DIPOLE MOMENT
-------------

Method             : SCF
Type of density    : Electron Density
Multiplicity       :   1
Irrep              :   0
Energy             :  -977.9997538859072392 Eh
Relativity type    :
Basis              : AO
                                X                 Y                 Z
Electronic contribution:    -10.484240573       2.674198183      -5.942219001
Nuclear contribution   :     10.975240310      -3.148619579       6.571678228
                        -----------------------------------------
Total Dipole Moment    :      0.490999737      -0.474421396       0.629459227
                        -----------------------------------------
Magnitude (a.u.)       :      0.928641653
Magnitude (Debye)      :      2.360419497

Rotational constants in cm-1:             0.016432             0.010695             0.007866
Rotational constants in MHz :           492.624532           320.618455           235.806353

                             ****ORCA TERMINATED NORMALLY****
TOTAL RUN TIME: 0 days 0 hours 2 minutes 46 seconds 904 msec
