                         Program Version 6.0.0  -   RELEASE   -
|  1> ! RIJCOSX M062X def2-TZVP D3ZERO NormalSCF
|  2> %pal
|  3> nprocs 6
|  4> end
|  5>
|  6> * xyz 0 1
|  7>   C           3.31039847892039     -0.78739382262531     -0.27934515751923
|  8>   C           2.36152654750457     -1.13507712778579     -1.25755642048693
|  9>   C           1.01409283653400     -0.78555390075321     -1.08232088821220
| 10>   C           0.61776932217101     -0.08472020872352      0.07577048398918
| 11>   C           1.56862341732420      0.26459816611319      1.05535621457563
| 12>   C           2.91462766854235     -0.08955039738493      0.87467865232532
| 13>   P          -1.10238749163856      0.42420545549811      0.34905784554868
| 14>   O          -1.35185428290287      1.08864655299031      1.71232472372104
| 15>   C          -1.59993366841177      1.63183392267981     -0.96691810307715
| 16>   O          -2.79146136676818      2.23227212015905     -0.51302932961879
| 17>   C          -2.24958864480045     -1.03690254799274      0.27088325304658
| 18>   O          -2.34920424404068     -1.53003114065405      1.58330583115833
| 19>   H           4.36635635039088     -1.06557494831109     -0.41810332202018
| 20>   H           2.67387256498912     -1.68382811355570     -2.15904176895932
| 21>   H           0.27285576629695     -1.06452523787376     -1.84900391476169
| 22>   H           1.22859645482140      0.80697473580646      1.95121407986550
| 23>   H           3.65931488336410      0.17805131504194      1.63980377077124
| 24>   H          -1.78362564457200      1.12878147739213     -1.94077908197123
| 25>   H          -0.75148318829913      2.34759161165826     -1.10787080429468
| 26>   H          -2.65504163243643      2.36378534728968      0.45562633208842
| 27>   H          -1.87414322344895     -1.83021888724416     -0.41003830919998
| 28>   H          -3.21488847639358     -0.64562163879719     -0.14067696912567
| 29>   H          -2.26442342714637     -0.72774373292748      2.15666088215712
| 30> **                         ****END OF INPUT****

CARTESIAN COORDINATES (ANGSTROEM)
---------------------------------
  C      3.310398   -0.787394   -0.279345
  C      2.361527   -1.135077   -1.257556
  C      1.014093   -0.785554   -1.082321
  C      0.617769   -0.084720    0.075770
  C      1.568623    0.264598    1.055356
  C      2.914628   -0.089550    0.874679
  P     -1.102387    0.424205    0.349058
  O     -1.351854    1.088647    1.712325
  C     -1.599934    1.631834   -0.966918
  O     -2.791461    2.232272   -0.513029
  C     -2.249589   -1.036903    0.270883
  O     -2.349204   -1.530031    1.583306
  H      4.366356   -1.065575   -0.418103
  H      2.673873   -1.683828   -2.159042
  H      0.272856   -1.064525   -1.849004
  H      1.228596    0.806975    1.951214
  H      3.659315    0.178051    1.639804
  H     -1.783626    1.128781   -1.940779
  H     -0.751483    2.347592   -1.107871
  H     -2.655042    2.363785    0.455626
  H     -1.874143   -1.830219   -0.410038
  H     -3.214888   -0.645622   -0.140677
  H     -2.264423   -0.727744    2.156661

 Total Charge           Charge          ....    0
 Multiplicity           Mult            ....    1
 Number of Electrons    NEL             ....   98
 Basis Dimension        Dim             ....  444

ORBITAL ENERGIES
----------------

  NO   OCC          E(Eh)            E(eV)
   0   2.0000     -78.105530     -2125.3595
   1   2.0000     -19.643445      -534.5253
   2   2.0000     -19.632415      -534.2252
   3   2.0000     -19.590337      -533.0802
   4   2.0000     -10.612275      -288.7747
   5   2.0000     -10.605971      -288.6032
   6   2.0000     -10.580881      -287.9204
   7   2.0000     -10.576825      -287.8100
   8   2.0000     -10.573688      -287.7247
   9   2.0000     -10.572847      -287.7018
  10   2.0000     -10.572553      -287.6938
  11   2.0000     -10.569797      -287.6188
  12   2.0000      -6.914400      -188.1504
  13   2.0000      -5.031131      -136.9040
  14   2.0000      -5.030780      -136.8945
  15   2.0000      -5.029735      -136.8660
  16   2.0000      -1.163557       -31.6620
  17   2.0000      -1.153460       -31.3872
  18   2.0000      -1.077693       -29.3255
  19   2.0000      -0.979046       -26.6412
  20   2.0000      -0.873975       -23.7821
  21   2.0000      -0.863634       -23.5007
  22   2.0000      -0.817616       -22.2484
  23   2.0000      -0.776460       -21.1285
  24   2.0000      -0.715795       -19.4778
  25   2.0000      -0.708557       -19.2808
  26   2.0000      -0.653529       -17.7834
  27   2.0000      -0.611930       -16.6515
  28   2.0000      -0.602512       -16.3952
  29   2.0000      -0.570685       -15.5291
  30   2.0000      -0.545238       -14.8367
  31   2.0000      -0.541990       -14.7483
  32   2.0000      -0.537547       -14.6274
  33   2.0000      -0.530373       -14.4322
  34   2.0000      -0.522887       -14.2285
  35   2.0000      -0.509587       -13.8666
  36   2.0000      -0.506529       -13.7834
  37   2.0000      -0.471289       -12.8244
  38   2.0000      -0.463234       -12.6052
  39   2.0000      -0.434352       -11.8193
  40   2.0000      -0.423769       -11.5313
  41   2.0000      -0.415867       -11.3163
  42   2.0000      -0.413536       -11.2529
  43   2.0000      -0.383750       -10.4424
  44   2.0000      -0.376297       -10.2396
  45   2.0000      -0.351986        -9.5780
  46   2.0000      -0.345627        -9.4050
  47   2.0000      -0.331174        -9.0117
  48   2.0000      -0.323549        -8.8042
  49   0.0000      -0.022238        -0.6051
  50   0.0000      -0.005990        -0.1630
  51   0.0000       0.040941         1.1141
  52   0.0000       0.052470         1.4278
  53   0.0000       0.074462         2.0262

MULLIKEN ATOMIC CHARGES
-----------------------
   0 C :   -0.133458
   1 C :   -0.149813
   2 C :   -0.179500
   3 C :   -0.055006
   4 C :   -0.148378
   5 C :   -0.132853
   6 P :    0.543008
   7 O :   -0.654321
   8 C :   -0.163394
   9 O :   -0.443777
  10 C :   -0.130348
  11 O :   -0.455762
  12 H :    0.154421
  13 H :    0.152478
  14 H :    0.164212
  15 H :    0.197117
  16 H :    0.155598
  17 H :    0.149906
  18 H :    0.149339
  19 H :    0.347402
  20 H :    0.138081
  21 H :    0.144583
  22 H :    0.350468
Sum of atomic charges:   -0.0000000

LOEWDIN ATOMIC CHARGES
----------------------
   0 C :   -0.124676
   1 C :   -0.135405
   2 C :   -0.132890
   3 C :   -0.252103
   4 C :   -0.111977
   5 C :   -0.130435
   6 P :    0.598680
   7 O :   -0.349328
   8 C :   -0.462040
   9 O :   -0.048766
  10 C :   -0.460223
  11 O :   -0.049541
  12 H :    0.150965
  13 H :    0.150830
  14 H :    0.149392
  15 H :    0.162165
  16 H :    0.151770
  17 H :    0.128522
  18 H :    0.126132
  19 H :    0.194093
  20 H :    0.125278
  21 H :    0.125944
  22 H :    0.193614

  Mayer bond orders larger than 0.100000
B(  0-C ,  1-C ) :   1.4366 B(  0-C ,  5-C ) :   1.4380 B(  0-C , 12-H ) :   0.9430
B(  1-C ,  2-C ) :   1.4957 B(  1-C , 13-H ) :   0.9446 B(  2-C ,  3-C ) :   1.3598
B(  2-C , 14-H ) :   0.9125 B(  3-C ,  4-C ) :   1.3985 B(  3-C ,  6-P ) :   0.8897
B(  4-C ,  5-C ) :   1.4380 B(  4-C , 15-H ) :   0.9092 B(  5-C , 16-H ) :   0.9461
B(  6-P ,  7-O ) :   1.7895 B(  6-P ,  8-C ) :   0.9353 B(  6-P , 10-C ) :   0.9553
B(  8-C ,  9-O ) :   0.9982 B(  8-C , 17-H ) :   0.9415 B(  8-C , 18-H ) :   0.9281
B(  9-O , 19-H ) :   0.8416 B( 10-C , 11-O ) :   1.0139 B( 10-C , 20-H ) :   0.9408
B( 10-C , 21-H ) :   0.9210 B( 11-O , 22-H ) :   0.8334

Dispersion correction           -0.001003621
FINAL SINGLE POINT ENERGY      -878.497880784426

DIPOLE MOMENT
-------------

Method             : SCF
Type of density    : Electron Density
Multiplicity       :   1
Irrep              :   0
Energy             :  -878.4968771635338953 Eh
Relativity type    :
Basis              : AO
                                X                 Y                 Z
Electronic contribution:     -1.382923225       1.098717376       2.662636522
Nuclear contribution   :      2.756663625      -1.413292829      -3.901743035
                        -----------------------------------------
Total Dipole Moment    :      1.373740400      -0.314575453      -1.239106512
                        -----------------------------------------
Magnitude (a.u.)       :      1.876567439
Magnitude (Debye)      :      4.769855362

Rotational constants in cm-1:             0.045819             0.017155             0.016059
Rotational constants in MHz :          1373.607398           514.294867           481.436610

                             ****ORCA TERMINATED NORMALLY****
TOTAL RUN TIME: 0 days 0 hours 0 minutes 45 seconds 60 msec
