                         Program Version 6.0.0  -   RELEASE   -
|  1> ! RI BP86 def2-SVP D3BJ TIGHTSCF Opt
|  2> %pal
|  3> nprocs 6
|  4> end
|  5>
|  6> * xyz 0 1
|  7> C     -2.409121    3.015772    1.647333
|  8> C     -1.718349    1.821842    1.859597
|  9> C     -0.721536    1.396981    0.965403
| 10> C     -0.428071    2.199813   -0.146652
| 11> C     -1.121890    3.392745   -0.353730
| 12> C     -2.111038    3.802917    0.536762
| 13> Cl    -0.752855    4.362790   -1.726065
| 14> P      0.122825   -0.161843    1.288161
| 15> O      0.290758   -0.383137    2.781658
| 16> C      1.725752   -0.113901    0.466348
| 17> C      1.926959   -0.614260   -0.828443
| 18> C      3.188141   -0.540617   -1.421189
| 19> C      4.261430    0.027345   -0.739208
| 20> C      4.074993    0.524584    0.549130
| 21> C      2.815954    0.453459    1.147001
| 22> Cl     3.416011   -1.154435   -3.012345
| 23> C     -0.847245   -1.489912    0.551782
| 24> C     -1.732551   -1.277635   -0.515223
| 25> C     -2.450502   -2.345792   -1.054610
| 26> C     -2.300353   -3.632666   -0.543687
| 27> C     -1.426611   -3.855645    0.518704
| 28> C     -0.706130   -2.791152    1.062257
| 29> Cl    -3.528226   -2.068450   -2.366888
| 30> H     -3.176521    3.332407    2.349923
| 31> H     -1.951640    1.215432    2.734960
| 32> H      0.338852    1.905041   -0.857497
| 33> H     -2.649474    4.732826    0.373577
| 34> H      1.108126   -1.063075   -1.383818
| 35> H      5.242872    0.082851   -1.202849
| 36> H      4.909752    0.964566    1.089857
| 37> H      2.679805    0.837366    2.158187
| 38> H     -1.870065   -0.284421   -0.933526
| 39> H     -2.861230   -4.462771   -0.965129
| 40> H     -1.308308   -4.856925    0.926422
| 41> H     -0.030513   -2.972099    1.898452
| 42> **                         ****END OF INPUT****
 Total Charge           Charge          ....    0
 Multiplicity           Mult            ....    1
 Number of Electrons    NEL             ....  194
Dispersion correction           -0.097232445
FINAL SINGLE POINT ENERGY     -2489.517473552541
Dispersion correction             ... done (  0.1 sec)
Dispersion correction           -0.097341741
FINAL SINGLE POINT ENERGY     -2489.523979733359
Dispersion correction             ... done (  0.1 sec)
Dispersion correction           -0.097656831
FINAL SINGLE POINT ENERGY     -2489.525526353090
Dispersion correction             ... done (  0.1 sec)
FINAL SINGLE POINT ENERGY     -2489.525843204963
Dispersion correction             ... done (  0.1 sec)
Dispersion correction           -0.097644081
FINAL SINGLE POINT ENERGY     -2489.525920623384
Dispersion correction             ... done (  0.1 sec)
Dispersion correction           -0.097610879
FINAL SINGLE POINT ENERGY     -2489.525928250178
Dispersion correction             ... done (  0.1 sec)
                    ***********************HURRAY********************

CARTESIAN COORDINATES (ANGSTROEM)
---------------------------------
  C     -2.321073    3.072671    1.711211
  C     -1.606505    1.894500    1.975900
  C     -0.716899    1.389017    1.007284
  C     -0.523458    2.067855   -0.210594
  C     -1.251673    3.243173   -0.457282
  C     -2.153741    3.751654    0.493420
  Cl    -1.022666    4.089879   -1.971251
  P      0.138211   -0.179622    1.419623
  O      0.307194   -0.400391    2.911131
  C      1.727188   -0.117680    0.506834
  C      1.837230   -0.450398   -0.856576
  C      3.087565   -0.336469   -1.485832
  C      4.222434    0.089596   -0.773968
  C      4.099544    0.399530    0.590192
  C      2.858500    0.296881    1.236932
  Cl     3.232297   -0.741189   -3.181896
  C     -0.839415   -1.493593    0.595761
  C     -1.557216   -1.277223   -0.595675
  C     -2.244115   -2.353249   -1.180932
  C     -2.233842   -3.628671   -0.589713
  C     -1.528573   -3.823086    0.609005
  C     -0.831703   -2.762523    1.207743
  Cl    -3.132643   -2.095497   -2.665983
  H     -3.017305    3.475074    2.462717
  H     -1.714599    1.360738    2.932044
  H      0.195467    1.707768   -0.960677
  H     -2.708542    4.675288    0.276795
  H      0.971699   -0.813309   -1.429488
  H      5.190037    0.166520   -1.289385
  H      4.988868    0.721603    1.153043
  H      2.750277    0.520551    2.308880
  H     -1.603379   -0.283335   -1.063804
  H     -2.782830   -4.452978   -1.066119
  H     -1.528963   -4.817604    1.080585
  H     -0.287373   -2.895478    2.154730

 Multiplicity           Mult            ....    1
 Number of Electrons    NEL             ....  194
 Basis Dimension        Dim             ....  398

ORBITAL ENERGIES
----------------

  NO   OCC          E(Eh)            E(eV)
   0   2.0000    -100.710612     -2740.4751
   1   2.0000    -100.710606     -2740.4749
   2   2.0000    -100.710576     -2740.4741
   3   2.0000     -76.430690     -2079.7848
   4   2.0000     -18.731987      -509.7233
   5   2.0000      -9.988179      -271.7922
   6   2.0000      -9.988175      -271.7920
   7   2.0000      -9.988139      -271.7911
   8   2.0000      -9.948683      -270.7174
   9   2.0000      -9.948670      -270.7171
  10   2.0000      -9.948651      -270.7166
  11   2.0000      -9.945632      -270.6344
  12   2.0000      -9.945611      -270.6338
  13   2.0000      -9.945606      -270.6337
  14   2.0000      -9.944316      -270.5986
  15   2.0000      -9.944284      -270.5977
  16   2.0000      -9.944196      -270.5953
  17   2.0000      -9.943383      -270.5732
  18   2.0000      -9.943365      -270.5727
  19   2.0000      -9.943353      -270.5724
  20   2.0000      -9.940417      -270.4925
  21   2.0000      -9.940399      -270.4920
  22   2.0000      -9.940331      -270.4902
  23   2.0000      -9.195731      -250.2286
  24   2.0000      -9.195725      -250.2284
  25   2.0000      -9.195696      -250.2276
  26   2.0000      -7.026691      -191.2060
  27   2.0000      -7.026685      -191.2058
  28   2.0000      -7.026657      -191.2050
  29   2.0000      -7.015448      -190.9001
  30   2.0000      -7.015440      -190.8998
  31   2.0000      -7.015412      -190.8991
  32   2.0000      -7.014839      -190.8835
  33   2.0000      -7.014833      -190.8833
  34   2.0000      -7.014803      -190.8825
  35   2.0000      -6.388757      -173.8469
  36   2.0000      -4.609976      -125.4438
  37   2.0000      -4.609969      -125.4436
  38   2.0000      -4.609736      -125.4373
  39   2.0000      -0.866407       -23.5761
  40   2.0000      -0.823026       -22.3957
  41   2.0000      -0.822209       -22.3734
  42   2.0000      -0.822200       -22.3732
  43   2.0000      -0.774506       -21.0754
  44   2.0000      -0.770410       -20.9639
  45   2.0000      -0.770402       -20.9637
  46   2.0000      -0.712804       -19.3964
  47   2.0000      -0.693206       -18.8631
  48   2.0000      -0.693153       -18.8616
  49   2.0000      -0.674953       -18.3664
  50   2.0000      -0.673043       -18.3144
  51   2.0000      -0.673028       -18.3140
  52   2.0000      -0.605840       -16.4858
  53   2.0000      -0.569135       -15.4870
  54   2.0000      -0.569071       -15.4852
  55   2.0000      -0.563590       -15.3361
  56   2.0000      -0.547269       -14.8919
  57   2.0000      -0.547189       -14.8898
  58   2.0000      -0.509518       -13.8647
  59   2.0000      -0.483949       -13.1689
  60   2.0000      -0.483876       -13.1669
  61   2.0000      -0.465654       -12.6711
  62   2.0000      -0.441754       -12.0207
  63   2.0000      -0.440164       -11.9775
  64   2.0000      -0.440111       -11.9760
  65   2.0000      -0.422415       -11.4945
  66   2.0000      -0.422335       -11.4923
  67   2.0000      -0.416443       -11.3320
  68   2.0000      -0.402007       -10.9392
  69   2.0000      -0.400957       -10.9106
  70   2.0000      -0.400896       -10.9089
  71   2.0000      -0.396601       -10.7921
  72   2.0000      -0.396460       -10.7882
  73   2.0000      -0.369239       -10.0475
  74   2.0000      -0.369197       -10.0464
  75   2.0000      -0.368387       -10.0243
  76   2.0000      -0.356899        -9.7117
  77   2.0000      -0.339521        -9.2388
  78   2.0000      -0.336971        -9.1695
  79   2.0000      -0.336927        -9.1682
  80   2.0000      -0.328073        -8.9273
  81   2.0000      -0.327939        -8.9237
  82   2.0000      -0.319275        -8.6879
  83   2.0000      -0.307568        -8.3694
  84   2.0000      -0.307513        -8.3679
  85   2.0000      -0.305697        -8.3184
  86   2.0000      -0.281462        -7.6590
  87   2.0000      -0.281447        -7.6586
  88   2.0000      -0.280780        -7.6404
  89   2.0000      -0.261147        -7.1062
  90   2.0000      -0.261019        -7.1027
  91   2.0000      -0.252396        -6.8680
  92   2.0000      -0.236932        -6.4473
  93   2.0000      -0.236893        -6.4462
  94   2.0000      -0.234088        -6.3699
  95   2.0000      -0.230631        -6.2758
  96   2.0000      -0.230525        -6.2729
  97   0.0000      -0.082971        -2.2578
  98   0.0000      -0.082769        -2.2523
  99   0.0000      -0.070799        -1.9265
 100   0.0000      -0.069340        -1.8868
 101   0.0000      -0.062889        -1.7113

MULLIKEN ATOMIC CHARGES
-----------------------
   0 C :   -0.010279
   1 C :    0.030167
   2 C :   -0.142725
   3 C :    0.024972
   4 C :    0.015288
   5 C :    0.034829
   6 Cl:   -0.074828
   7 P :    0.627020
   8 O :   -0.445614
   9 C :   -0.143351
  10 C :    0.025093
  11 C :    0.015380
  12 C :    0.034870
  13 C :   -0.010294
  14 C :    0.029943
  15 Cl:   -0.074705
  16 C :   -0.143111
  17 C :    0.024866
  18 C :    0.015854
  19 C :    0.034771
  20 C :   -0.010233
  21 C :    0.029778
  22 Cl:   -0.074804
  23 H :    0.020446
  24 H :    0.025856
  25 H :    0.006035
  26 H :    0.010205
  27 H :    0.005567
  28 H :    0.010188
  29 H :    0.020459
  30 H :    0.025916
  31 H :    0.005940
  32 H :    0.010197
  33 H :    0.020456
  34 H :    0.025849
Sum of atomic charges:   -0.0000000

LOEWDIN ATOMIC CHARGES
----------------------
   0 C :   -0.016524
   1 C :   -0.019182
   2 C :   -0.177496
   3 C :   -0.053839
   4 C :   -0.117971
   5 C :   -0.035344
   6 Cl:    0.123772
   7 P :    0.890317
   8 O :   -0.481026
   9 C :   -0.177536
  10 C :   -0.053876
  11 C :   -0.118026
  12 C :   -0.035318
  13 C :   -0.016528
  14 C :   -0.019174
  15 Cl:    0.123831
  16 C :   -0.177452
  17 C :   -0.053934
  18 C :   -0.118029
  19 C :   -0.035341
  20 C :   -0.016529
  21 C :   -0.019172
  22 Cl:    0.123817
  23 H :    0.040965
  24 H :    0.041371
  25 H :    0.036955
  26 H :    0.040915
  27 H :    0.036905
  28 H :    0.040914
  29 H :    0.040964
  30 H :    0.041439
  31 H :    0.036846
  32 H :    0.040913
  33 H :    0.040953
  34 H :    0.041418

  Mayer bond orders larger than 0.100000
B(  0-C ,  1-C ) :   1.3640 B(  0-C ,  5-C ) :   1.3658 B(  0-C , 23-H ) :   0.9731
B(  1-C ,  2-C ) :   1.3783 B(  1-C , 24-H ) :   0.9740 B(  2-C ,  3-C ) :   1.3430
B(  2-C ,  7-P ) :   0.8737 B(  3-C ,  4-C ) :   1.3800 B(  3-C , 25-H ) :   0.9635
B(  4-C ,  5-C ) :   1.3852 B(  4-C ,  6-Cl) :   1.0003 B(  5-C , 26-H ) :   0.9760
B(  7-P ,  8-O ) :   1.8889 B(  7-P ,  9-C ) :   0.8733 B(  7-P , 16-C ) :   0.8742
B(  9-C , 10-C ) :   1.3419 B(  9-C , 14-C ) :   1.3789 B( 10-C , 11-C ) :   1.3802
B( 10-C , 27-H ) :   0.9635 B( 11-C , 12-C ) :   1.3849 B( 11-C , 15-Cl) :   1.0007
B( 12-C , 13-C ) :   1.3661 B( 12-C , 28-H ) :   0.9760 B( 13-C , 14-C ) :   1.3635
B( 13-C , 29-H ) :   0.9731 B( 14-C , 30-H ) :   0.9740 B( 16-C , 17-C ) :   1.3421
B( 16-C , 21-C ) :   1.3792 B( 17-C , 18-C ) :   1.3800 B( 17-C , 31-H ) :   0.9635
B( 18-C , 19-C ) :   1.3848 B( 18-C , 22-Cl) :   1.0003 B( 19-C , 20-C ) :   1.3661
B( 19-C , 32-H ) :   0.9761 B( 20-C , 21-C ) :   1.3631 B( 20-C , 33-H ) :   0.9731
B( 21-C , 34-H ) :   0.9740

Dispersion correction           -0.097592508
FINAL SINGLE POINT ENERGY     -2489.525930279082

DIPOLE MOMENT
-------------

Method             : SCF
Type of density    : Electron Density
Multiplicity       :   1
Irrep              :   0
Energy             : -2489.4283377714600647 Eh
Relativity type    :
Basis              : AO
                                X                 Y                 Z
Electronic contribution:     -1.936273586       2.652533056     -17.729252617
Nuclear contribution   :      1.924458154      -2.645462624      17.664081308
                        -----------------------------------------
Total Dipole Moment    :     -0.011815432       0.007070431      -0.065171309
                        -----------------------------------------
Magnitude (a.u.)       :      0.066610021
Magnitude (Debye)      :      0.169309219

Rotational constants in cm-1:             0.005502             0.005481             0.004333
Rotational constants in MHz :           164.936183           164.305288           129.901905

                             ****ORCA TERMINATED NORMALLY****
TOTAL RUN TIME: 0 days 0 hours 2 minutes 13 seconds 632 msec
