                         Program Version 6.0.0  -   RELEASE   -
|  1> ! RIJCOSX M062X def2-TZVP D3ZERO NormalSCF
|  2> %pal
|  3> nprocs 6
|  4> end
|  5>
|  6> * xyz 0 1
|  7>   C          -0.21037029517889      1.54827015527285      1.72558802466556
|  8>   C          -0.49638393682974      1.77927166759558      0.23419729036747
|  9>   C           0.49811709566773      2.83053468244278     -0.30470394781268
| 10>   C          -1.93226410449158      2.30055820465102      0.03790064494926
| 11>   P          -0.24425349000244      0.27475005101662     -0.94185104880600
| 12>   C           1.39231234840658     -0.36883846381720     -0.34316587302946
| 13>   C           2.48825072240042     -0.14830375417502     -1.20821099246793
| 14>   C           3.78440554398924     -0.56708392982028     -0.86387983059489
| 15>   C           4.00669060746249     -1.23318453162715      0.35168100429978
| 16>   C           2.92721419222603     -1.47102270247528      1.21996817609014
| 17>   C           1.63643349053989     -1.03775331753796      0.87893553854182
| 18>   C          -1.50522382900907     -1.12081640467757     -0.52423742299320
| 19>   C          -1.95302284518202     -1.29884960730420      0.93514162874446
| 20>   C          -2.74463098552967     -0.81518999764856     -1.39602942900698
| 21>   C          -0.86352716022129     -2.42595573012935     -1.03872075298312
| 22>   H           0.83887104148072      1.23733836690664      1.89511675467441
| 23>   H          -0.87425061991583      0.78598282187638      2.17391754300929
| 24>   H          -0.36814294625130      2.49699889057588      2.28491067062670
| 25>   H           0.39893233325319      3.77435390949170      0.27464549778417
| 26>   H           1.54761943185101      2.48471710668526     -0.20746304872319
| 27>   H           0.31006184359388      3.06007772672765     -1.37320972057597
| 28>   H          -2.04348240759160      3.29164780688426      0.52922415561937
| 29>   H          -2.17790542897301      2.42811290269324     -1.03675919351897
| 30>   H          -2.68754234092101      1.62518613048338      0.48737624455064
| 31>   H           2.30913063908088      0.35782360333776     -2.17039549338492
| 32>   H           4.62217203998624     -0.37978561741888     -1.55340256883822
| 33>   H           5.01907393790252     -1.57040015598287      0.62264381094818
| 34>   H           3.09232198085691     -1.99426353551412      2.17476747143825
| 35>   H           0.81045375285641     -1.22515470920599      1.57831728735739
| 36>   H          -1.11232867643535     -1.53365219310848      1.61585285495525
| 37>   H          -2.67160942418571     -2.14563444531921      1.00209943058713
| 38>   H          -2.47119555874538     -0.40109033134891      1.32520522778872
| 39>   H          -2.46714405935220     -0.70364835009949     -2.46352313751191
| 40>   H          -3.47790553527795     -1.64709379528699     -1.31375849412965
| 41>   H          -3.25797166696921      0.11429405987079     -1.08179587030511
| 42>   H          -0.01753288116022     -2.75512980810552     -0.40470360530150
| 43>   H          -1.62368147058814     -3.23706153266482     -1.04699086940323
| 44>   H          -0.48169233874253     -2.31000417324395     -2.07468895761102
| 45> **                         ****END OF INPUT****

CARTESIAN COORDINATES (ANGSTROEM)
---------------------------------
  C     -0.210370    1.548270    1.725588
  C     -0.496384    1.779272    0.234197
  C      0.498117    2.830535   -0.304704
  C     -1.932264    2.300558    0.037901
  P     -0.244253    0.274750   -0.941851
  C      1.392312   -0.368838   -0.343166
  C      2.488251   -0.148304   -1.208211
  C      3.784406   -0.567084   -0.863880
  C      4.006691   -1.233185    0.351681
  C      2.927214   -1.471023    1.219968
  C      1.636433   -1.037753    0.878936
  C     -1.505224   -1.120816   -0.524237
  C     -1.953023   -1.298850    0.935142
  C     -2.744631   -0.815190   -1.396029
  C     -0.863527   -2.425956   -1.038721
  H      0.838871    1.237338    1.895117
  H     -0.874251    0.785983    2.173918
  H     -0.368143    2.496999    2.284911
  H      0.398932    3.774354    0.274645
  H      1.547619    2.484717   -0.207463
  H      0.310062    3.060078   -1.373210
  H     -2.043482    3.291648    0.529224
  H     -2.177905    2.428113   -1.036759
  H     -2.687542    1.625186    0.487376
  H      2.309131    0.357824   -2.170395
  H      4.622172   -0.379786   -1.553403
  H      5.019074   -1.570400    0.622644
  H      3.092322   -1.994264    2.174767
  H      0.810454   -1.225155    1.578317
  H     -1.112329   -1.533652    1.615853
  H     -2.671609   -2.145634    1.002099
  H     -2.471196   -0.401090    1.325205
  H     -2.467144   -0.703648   -2.463523
  H     -3.477906   -1.647094   -1.313758
  H     -3.257972    0.114294   -1.081796
  H     -0.017533   -2.755130   -0.404704
  H     -1.623681   -3.237062   -1.046991
  H     -0.481692   -2.310004   -2.074689

 Total Charge           Charge          ....    0
 Multiplicity           Mult            ....    1
 Number of Electrons    NEL             ....  122
 Basis Dimension        Dim             ....  609

ORBITAL ENERGIES
----------------

  NO   OCC          E(Eh)            E(eV)
   0   2.0000     -78.014719     -2122.8884
   1   2.0000     -10.556699      -287.2624
   2   2.0000     -10.555220      -287.2222
   3   2.0000     -10.551696      -287.1262
   4   2.0000     -10.551464      -287.1199
   5   2.0000     -10.550718      -287.0996
   6   2.0000     -10.550089      -287.0825
   7   2.0000     -10.549328      -287.0618
   8   2.0000     -10.548617      -287.0425
   9   2.0000     -10.533488      -286.6308
  10   2.0000     -10.532189      -286.5954
  11   2.0000     -10.528624      -286.4984
  12   2.0000     -10.528101      -286.4842
  13   2.0000     -10.527040      -286.4553
  14   2.0000     -10.526386      -286.4375
  15   2.0000      -6.830780      -185.8750
  16   2.0000      -4.945135      -134.5640
  17   2.0000      -4.944867      -134.5567
  18   2.0000      -4.944481      -134.5462
  19   2.0000      -0.955213       -25.9927
  20   2.0000      -0.914309       -24.8796
  21   2.0000      -0.897714       -24.4281
  22   2.0000      -0.842019       -22.9125
  23   2.0000      -0.840010       -22.8578
  24   2.0000      -0.777947       -21.1690
  25   2.0000      -0.774737       -21.0817
  26   2.0000      -0.767674       -20.8895
  27   2.0000      -0.767189       -20.8763
  28   2.0000      -0.715700       -19.4752
  29   2.0000      -0.684669       -18.6308
  30   2.0000      -0.661432       -17.9985
  31   2.0000      -0.620035       -16.8720
  32   2.0000      -0.600616       -16.3436
  33   2.0000      -0.567516       -15.4429
  34   2.0000      -0.529836       -14.4176
  35   2.0000      -0.525405       -14.2970
  36   2.0000      -0.517055       -14.0698
  37   2.0000      -0.513522       -13.9736
  38   2.0000      -0.502947       -13.6859
  39   2.0000      -0.499292       -13.5864
  40   2.0000      -0.492264       -13.3952
  41   2.0000      -0.487374       -13.2621
  42   2.0000      -0.479001       -13.0343
  43   2.0000      -0.458495       -12.4763
  44   2.0000      -0.450222       -12.2512
  45   2.0000      -0.445480       -12.1221
  46   2.0000      -0.438240       -11.9251
  47   2.0000      -0.434858       -11.8331
  48   2.0000      -0.433729       -11.8024
  49   2.0000      -0.424390       -11.5483
  50   2.0000      -0.423383       -11.5208
  51   2.0000      -0.403654       -10.9840
  52   2.0000      -0.399357       -10.8671
  53   2.0000      -0.392446       -10.6790
  54   2.0000      -0.386378       -10.5139
  55   2.0000      -0.382403       -10.4057
  56   2.0000      -0.349636        -9.5141
  57   2.0000      -0.336624        -9.1600
  58   2.0000      -0.308299        -8.3893
  59   2.0000      -0.301628        -8.2077
  60   2.0000      -0.266486        -7.2515
  61   0.0000       0.002598         0.0707
  62   0.0000       0.016260         0.4425
  63   0.0000       0.059180         1.6104
  64   0.0000       0.067607         1.8397
  65   0.0000       0.079885         2.1738

MULLIKEN ATOMIC CHARGES
-----------------------
   0 C :   -0.480884
   1 C :   -0.006852
   2 C :   -0.466785
   3 C :   -0.489387
   4 P :    0.080716
   5 C :   -0.037238
   6 C :   -0.115981
   7 C :   -0.153811
   8 C :   -0.132187
   9 C :   -0.162022
  10 C :   -0.231492
  11 C :   -0.059524
  12 C :   -0.470467
  13 C :   -0.436203
  14 C :   -0.458593
  15 H :    0.176878
  16 H :    0.161440
  17 H :    0.149321
  18 H :    0.145812
  19 H :    0.170947
  20 H :    0.163242
  21 H :    0.152919
  22 H :    0.176076
  23 H :    0.143862
  24 H :    0.160255
  25 H :    0.145061
  26 H :    0.145109
  27 H :    0.144602
  28 H :    0.175453
  29 H :    0.155579
  30 H :    0.155603
  31 H :    0.146590
  32 H :    0.166169
  33 H :    0.144834
  34 H :    0.158272
  35 H :    0.172230
  36 H :    0.145638
  37 H :    0.164819
Sum of atomic charges:   -0.0000000

LOEWDIN ATOMIC CHARGES
----------------------
   0 C :   -0.295361
   1 C :   -0.451649
   2 C :   -0.302333
   3 C :   -0.301363
   4 P :    0.699752
   5 C :   -0.278632
   6 C :   -0.148035
   7 C :   -0.144504
   8 C :   -0.140822
   9 C :   -0.146444
  10 C :   -0.150725
  11 C :   -0.451647
  12 C :   -0.298369
  13 C :   -0.306081
  14 C :   -0.295367
  15 H :    0.132387
  16 H :    0.123293
  17 H :    0.128302
  18 H :    0.126141
  19 H :    0.129671
  20 H :    0.126821
  21 H :    0.128375
  22 H :    0.128575
  23 H :    0.119580
  24 H :    0.149297
  25 H :    0.147376
  26 H :    0.146936
  27 H :    0.147151
  28 H :    0.145764
  29 H :    0.119060
  30 H :    0.129590
  31 H :    0.120734
  32 H :    0.127625
  33 H :    0.125472
  34 H :    0.122905
  35 H :    0.129188
  36 H :    0.126786
  37 H :    0.130551

  Mayer bond orders larger than 0.100000
B(  0-C ,  1-C ) :   0.9417 B(  0-C , 15-H ) :   0.9608 B(  0-C , 16-H ) :   0.9683
B(  0-C , 17-H ) :   0.9560 B(  1-C ,  2-C ) :   0.9546 B(  1-C ,  3-C ) :   0.9227
B(  1-C ,  4-P ) :   0.9368 B(  2-C , 18-H ) :   0.9586 B(  2-C , 19-H ) :   0.9620
B(  2-C , 20-H ) :   0.9650 B(  3-C , 21-H ) :   0.9588 B(  3-C , 22-H ) :   0.9671
B(  3-C , 23-H ) :   0.9669 B(  4-P ,  5-C ) :   0.9559 B(  4-P , 11-C ) :   0.9280
B(  5-C ,  6-C ) :   1.3851 B(  5-C , 10-C ) :   1.2347 B(  6-C ,  7-C ) :   1.4519
B(  6-C , 24-H ) :   0.9355 B(  7-C ,  8-C ) :   1.4482 B(  7-C , 25-H ) :   0.9465
B(  8-C ,  9-C ) :   1.4318 B(  8-C , 26-H ) :   0.9475 B(  9-C , 10-C ) :   1.5059
B(  9-C , 27-H ) :   0.9412 B( 10-C , 28-H ) :   0.9515 B( 11-C , 12-C ) :   0.9181
B( 11-C , 13-C ) :   0.9636 B( 11-C , 14-C ) :   0.9599 B( 12-C , 29-H ) :   0.9675
B( 12-C , 30-H ) :   0.9570 B( 12-C , 31-H ) :   0.9693 B( 13-C , 32-H ) :   0.9650
B( 13-C , 33-H ) :   0.9607 B( 13-C , 34-H ) :   0.9599 B( 14-C , 35-H ) :   0.9641
B( 14-C , 36-H ) :   0.9573 B( 14-C , 37-H ) :   0.9607

Dispersion correction           -0.002474398
FINAL SINGLE POINT ENERGY      -888.620512841022

DIPOLE MOMENT
-------------

Method             : SCF
Type of density    : Electron Density
Multiplicity       :   1
Irrep              :   0
Energy             :  -888.6180384429352443 Eh
Relativity type    :
Basis              : AO
                                X                 Y                 Z
Electronic contribution:     12.697703984      -2.818436592      -4.508451595
Nuclear contribution   :    -12.660031139       2.710215394       4.930978371
                        -----------------------------------------
Total Dipole Moment    :      0.037672845      -0.108221198       0.422526776
                        -----------------------------------------
Magnitude (a.u.)       :      0.437789844
Magnitude (Debye)      :      1.112773350

Rotational constants in cm-1:             0.024384             0.014368             0.011653
Rotational constants in MHz :           731.025966           430.727731           349.348962

                             ****ORCA TERMINATED NORMALLY****
TOTAL RUN TIME: 0 days 0 hours 1 minutes 42 seconds 150 msec
