                         Program Version 6.0.0  -   RELEASE   -
|  1> ! RIJCOSX M062X def2-TZVP D3ZERO NormalSCF
|  2> %pal
|  3> nprocs 6
|  4> end
|  5>
|  6> * xyz 0 1
|  7>   C           4.75229837526229     -3.53309334863173     -1.13540678865001
|  8>   O           3.91454535133447     -3.86722190893532     -0.04260912107950
|  9>   C           3.03602124433902     -2.92650974499212      0.40767118405281
| 10>   C           2.23233863925785     -3.30442445695196      1.50797983470438
| 11>   C           1.31181889598446     -2.40264573668807      2.04498762833414
| 12>   C           1.14622625372686     -1.10866049970950      1.49473189131457
| 13>   C           1.95229880119420     -0.74432498313114      0.40000740167160
| 14>   C           2.89398122936524     -1.63577258548199     -0.14328563625196
| 15>   P          -0.12024949916073     -0.00312448998287      2.26555180166745
| 16>   C          -1.63723662659254     -0.50521899616483      1.33476953605827
| 17>   C          -1.62787936423079     -1.33478809563724      0.19789709412019
| 18>   C          -2.81797284101213     -1.67559627571975     -0.46863033490500
| 19>   C          -4.05074719469401     -1.17420683937397     -0.00109915064002
| 20>   C          -4.07341602354337     -0.33991237111824      1.14032511447228
| 21>   C          -2.88453636834660     -0.02278725732776      1.79976046745423
| 22>   O          -5.26034569658533     -1.43926662298368     -0.57213740102438
| 23>   C          -5.29366990248533     -2.27955497859965     -1.71247431950277
| 24>   C           0.27537543857108      1.60735449877961      1.44648022367346
| 25>   C           1.27808564237803      2.41551483288736      2.03509236773698
| 26>   C           1.64747248610059      3.63662227464260      1.46838331649185
| 27>   C           1.00359910391512      4.09886314638170      0.29735654131158
| 28>   C          -0.00800328768968      3.31313305991803     -0.29331592223704
| 29>   C          -0.35836693857837      2.07872027077129      0.28145422665813
| 30>   O           1.42176117489373      5.30676174941502     -0.17770072436128
| 31>   C           0.79941252451683      5.82161477896546     -1.34167093892912
| 32>   H           4.16493719354157     -3.29704195801755     -2.05153365844558
| 33>   H           5.41088090222328     -2.66606040688349     -0.90268333838581
| 34>   H           5.38159782266231     -4.42115020091974     -1.33074045005180
| 35>   H           2.36249681475883     -4.31238748727462      1.92852876844280
| 36>   H           0.70054642096433     -2.70549933241000      2.91075120612816
| 37>   H           1.84530195639106      0.25718167864806     -0.04375762614194
| 38>   H           3.50715852766591     -1.31279284173368     -0.99558560091269
| 39>   H          -0.67126968732890     -1.72527843971231     -0.18119168292840
| 40>   H          -2.76976243797027     -2.32982105604422     -1.34976647238273
| 41>   H          -5.04501034396352      0.03524540906191      1.49395321761087
| 42>   H          -2.91771004111461      0.61809943181880      2.69589000196803
| 43>   H          -6.35600899686890     -2.36566971495091     -2.00717022819902
| 44>   H          -4.89560952424281     -3.29549345574992     -1.49081381326155
| 45>   H          -4.71610055305106     -1.84946390794218     -2.56183858666808
| 46>   H           1.77905887362216      2.07277326400634      2.95509627101753
| 47>   H           2.42857152388519      4.26686465724879      1.91831837073091
| 48>   H          -0.52899712079719      3.64851782345030     -1.20037324153988
| 49>   H          -1.14404480184097      1.47129564097927     -0.19292615409882
| 50>   H          -0.29327971648153      5.97621709292182     -1.19387760358228
| 51>   H           0.94779932315638      5.15502197061267     -2.22124753698223
| 52>   H           1.27663444686787      6.79796741255944     -1.54619713445834
| 53> **                         ****END OF INPUT****

CARTESIAN COORDINATES (ANGSTROEM)
---------------------------------
  C      4.752298   -3.533093   -1.135407
  O      3.914545   -3.867222   -0.042609
  C      3.036021   -2.926510    0.407671
  C      2.232339   -3.304424    1.507980
  C      1.311819   -2.402646    2.044988
  C      1.146226   -1.108660    1.494732
  C      1.952299   -0.744325    0.400007
  C      2.893981   -1.635773   -0.143286
  P     -0.120249   -0.003124    2.265552
  C     -1.637237   -0.505219    1.334770
  C     -1.627879   -1.334788    0.197897
  C     -2.817973   -1.675596   -0.468630
  C     -4.050747   -1.174207   -0.001099
  C     -4.073416   -0.339912    1.140325
  C     -2.884536   -0.022787    1.799760
  O     -5.260346   -1.439267   -0.572137
  C     -5.293670   -2.279555   -1.712474
  C      0.275375    1.607354    1.446480
  C      1.278086    2.415515    2.035092
  C      1.647472    3.636622    1.468383
  C      1.003599    4.098863    0.297357
  C     -0.008003    3.313133   -0.293316
  C     -0.358367    2.078720    0.281454
  O      1.421761    5.306762   -0.177701
  C      0.799413    5.821615   -1.341671
  H      4.164937   -3.297042   -2.051534
  H      5.410881   -2.666060   -0.902683
  H      5.381598   -4.421150   -1.330740
  H      2.362497   -4.312387    1.928529
  H      0.700546   -2.705499    2.910751
  H      1.845302    0.257182   -0.043758
  H      3.507159   -1.312793   -0.995586
  H     -0.671270   -1.725278   -0.181192
  H     -2.769762   -2.329821   -1.349766
  H     -5.045010    0.035245    1.493953
  H     -2.917710    0.618099    2.695890
  H     -6.356009   -2.365670   -2.007170
  H     -4.895610   -3.295493   -1.490814
  H     -4.716101   -1.849464   -2.561839
  H      1.779059    2.072773    2.955096
  H      2.428572    4.266865    1.918318
  H     -0.528997    3.648518   -1.200373
  H     -1.144045    1.471296   -0.192926
  H     -0.293280    5.976217   -1.193878
  H      0.947799    5.155022   -2.221248
  H      1.276634    6.797967   -1.546197

 Total Charge           Charge          ....    0
 Multiplicity           Mult            ....    1
 Number of Electrons    NEL             ....  186
 Basis Dimension        Dim             ....  907

ORBITAL ENERGIES
----------------

  NO   OCC          E(Eh)            E(eV)
   0   2.0000     -78.023933     -2123.1391
   1   2.0000     -19.661978      -535.0296
   2   2.0000     -19.661910      -535.0278
   3   2.0000     -19.661805      -535.0249
   4   2.0000     -10.610094      -288.7153
   5   2.0000     -10.610056      -288.7143
   6   2.0000     -10.609992      -288.7125
   7   2.0000     -10.599100      -288.4162
   8   2.0000     -10.599084      -288.4157
   9   2.0000     -10.598997      -288.4134
  10   2.0000     -10.550140      -287.0839
  11   2.0000     -10.550136      -287.0838
  12   2.0000     -10.550099      -287.0828
  13   2.0000     -10.549212      -287.0587
  14   2.0000     -10.549145      -287.0568
  15   2.0000     -10.549127      -287.0563
  16   2.0000     -10.546771      -286.9922
  17   2.0000     -10.546759      -286.9919
  18   2.0000     -10.546707      -286.9905
  19   2.0000     -10.543739      -286.9097
  20   2.0000     -10.543718      -286.9091
  21   2.0000     -10.543711      -286.9090
  22   2.0000     -10.543616      -286.9064
  23   2.0000     -10.543614      -286.9063
  24   2.0000     -10.543571      -286.9052
  25   2.0000      -6.839710      -186.1180
  26   2.0000      -4.954393      -134.8159
  27   2.0000      -4.953958      -134.8040
  28   2.0000      -4.953955      -134.8040
  29   2.0000      -1.194291       -32.4983
  30   2.0000      -1.194267       -32.4976
  31   2.0000      -1.194181       -32.4953
  32   2.0000      -0.957206       -26.0469
  33   2.0000      -0.949265       -25.8308
  34   2.0000      -0.949191       -25.8288
  35   2.0000      -0.867798       -23.6140
  36   2.0000      -0.849342       -23.1118
  37   2.0000      -0.849288       -23.1103
  38   2.0000      -0.841839       -22.9076
  39   2.0000      -0.839383       -22.8408
  40   2.0000      -0.839322       -22.8391
  41   2.0000      -0.799493       -21.7553
  42   2.0000      -0.781558       -21.2673
  43   2.0000      -0.781477       -21.2651
  44   2.0000      -0.712617       -19.3913
  45   2.0000      -0.692878       -18.8542
  46   2.0000      -0.692846       -18.8533
  47   2.0000      -0.689272       -18.7561
  48   2.0000      -0.665244       -18.1022
  49   2.0000      -0.665187       -18.1007
  50   2.0000      -0.630201       -17.1486
  51   2.0000      -0.609617       -16.5885
  52   2.0000      -0.609555       -16.5868
  53   2.0000      -0.604349       -16.4452
  54   2.0000      -0.558146       -15.1879
  55   2.0000      -0.557960       -15.1829
  56   2.0000      -0.557939       -15.1823
  57   2.0000      -0.550514       -14.9802
  58   2.0000      -0.550457       -14.9787
  59   2.0000      -0.550382       -14.9767
  60   2.0000      -0.533065       -14.5054
  61   2.0000      -0.533030       -14.5045
  62   2.0000      -0.514500       -14.0003
  63   2.0000      -0.510875       -13.9016
  64   2.0000      -0.510831       -13.9004
  65   2.0000      -0.489024       -13.3070
  66   2.0000      -0.487571       -13.2675
  67   2.0000      -0.487491       -13.2653
  68   2.0000      -0.484760       -13.1910
  69   2.0000      -0.479785       -13.0556
  70   2.0000      -0.479781       -13.0555
  71   2.0000      -0.467803       -12.7296
  72   2.0000      -0.447918       -12.1885
  73   2.0000      -0.447837       -12.1863
  74   2.0000      -0.446409       -12.1474
  75   2.0000      -0.428843       -11.6694
  76   2.0000      -0.428806       -11.6684
  77   2.0000      -0.428669       -11.6647
  78   2.0000      -0.401743       -10.9320
  79   2.0000      -0.401689       -10.9305
  80   2.0000      -0.395152       -10.7526
  81   2.0000      -0.388560       -10.5733
  82   2.0000      -0.388375       -10.5682
  83   2.0000      -0.388317       -10.5666
  84   2.0000      -0.375318       -10.2129
  85   2.0000      -0.375260       -10.2114
  86   2.0000      -0.315458        -8.5841
  87   2.0000      -0.310291        -8.4435
  88   2.0000      -0.307765        -8.3747
  89   2.0000      -0.307689        -8.3727
  90   2.0000      -0.280066        -7.6210
  91   2.0000      -0.279854        -7.6152
  92   2.0000      -0.249065        -6.7774
  93   0.0000       0.002283         0.0621
  94   0.0000       0.012560         0.3418
  95   0.0000       0.012710         0.3459
  96   0.0000       0.025448         0.6925
  97   0.0000       0.025544         0.6951

MULLIKEN ATOMIC CHARGES
-----------------------
   0 C :   -0.298513
   1 O :   -0.277688
   2 C :    0.300197
   3 C :   -0.205342
   4 C :   -0.120829
   5 C :   -0.122552
   6 C :   -0.155966
   7 C :   -0.260214
   8 P :    0.106892
   9 C :   -0.123222
  10 C :   -0.154840
  11 C :   -0.257931
  12 C :    0.297600
  13 C :   -0.206061
  14 C :   -0.120447
  15 O :   -0.277530
  16 C :   -0.298946
  17 C :   -0.121594
  18 C :   -0.123628
  19 C :   -0.206933
  20 C :    0.298258
  21 C :   -0.256756
  22 C :   -0.156332
  23 O :   -0.277673
  24 C :   -0.299017
  25 H :    0.148165
  26 H :    0.150949
  27 H :    0.156025
  28 H :    0.153815
  29 H :    0.154173
  30 H :    0.183400
  31 H :    0.158541
  32 H :    0.183477
  33 H :    0.159022
  34 H :    0.154305
  35 H :    0.154405
  36 H :    0.155864
  37 H :    0.150773
  38 H :    0.148699
  39 H :    0.154624
  40 H :    0.155039
  41 H :    0.158658
  42 H :    0.183827
  43 H :    0.150973
  44 H :    0.148353
  45 H :    0.155977
Sum of atomic charges:   -0.0000000

LOEWDIN ATOMIC CHARGES
----------------------
   0 C :   -0.339622
   1 O :    0.224396
   2 C :   -0.240463
   3 C :   -0.118895
   4 C :   -0.138676
   5 C :   -0.291104
   6 C :   -0.135971
   7 C :   -0.148066
   8 P :    0.688287
   9 C :   -0.291109
  10 C :   -0.135743
  11 C :   -0.147952
  12 C :   -0.240516
  13 C :   -0.119025
  14 C :   -0.138742
  15 O :    0.224432
  16 C :   -0.339742
  17 C :   -0.290909
  18 C :   -0.138690
  19 C :   -0.118984
  20 C :   -0.240501
  21 C :   -0.148020
  22 C :   -0.136033
  23 O :    0.224433
  24 C :   -0.339885
  25 H :    0.111786
  26 H :    0.112671
  27 H :    0.119178
  28 H :    0.153518
  29 H :    0.152093
  30 H :    0.159130
  31 H :    0.150663
  32 H :    0.159180
  33 H :    0.150619
  34 H :    0.153548
  35 H :    0.152136
  36 H :    0.119175
  37 H :    0.112619
  38 H :    0.111810
  39 H :    0.152112
  40 H :    0.153562
  41 H :    0.150568
  42 H :    0.159147
  43 H :    0.112647
  44 H :    0.111759
  45 H :    0.119178

  Mayer bond orders larger than 0.100000
B(  0-C ,  1-O ) :   0.9379 B(  0-C , 25-H ) :   0.9633 B(  0-C , 26-H ) :   0.9632
B(  0-C , 27-H ) :   0.9724 B(  1-O ,  2-C ) :   1.0895 B(  2-C ,  3-C ) :   1.3809
B(  2-C ,  7-C ) :   1.3485 B(  3-C ,  4-C ) :   1.4995 B(  3-C , 28-H ) :   0.9425
B(  4-C ,  5-C ) :   1.3784 B(  4-C , 29-H ) :   0.9379 B(  5-C ,  6-C ) :   1.3579
B(  5-C ,  8-P ) :   0.9414 B(  6-C ,  7-C ) :   1.4756 B(  6-C , 30-H ) :   0.9146
B(  7-C , 31-H ) :   0.9102 B(  8-P ,  9-C ) :   0.9402 B(  8-P , 17-C ) :   0.9421
B(  9-C , 10-C ) :   1.3586 B(  9-C , 14-C ) :   1.3791 B( 10-C , 11-C ) :   1.4774
B( 10-C , 32-H ) :   0.9135 B( 11-C , 12-C ) :   1.3503 B( 11-C , 33-H ) :   0.9082
B( 12-C , 13-C ) :   1.3799 B( 12-C , 15-O ) :   1.0904 B( 13-C , 14-C ) :   1.5004
B( 13-C , 34-H ) :   0.9422 B( 14-C , 35-H ) :   0.9375 B( 15-O , 16-C ) :   0.9377
B( 16-C , 36-H ) :   0.9725 B( 16-C , 37-H ) :   0.9631 B( 16-C , 38-H ) :   0.9633
B( 17-C , 18-C ) :   1.3792 B( 17-C , 22-C ) :   1.3582 B( 18-C , 19-C ) :   1.5021
B( 18-C , 39-H ) :   0.9371 B( 19-C , 20-C ) :   1.3792 B( 19-C , 40-H ) :   0.9417
B( 20-C , 21-C ) :   1.3506 B( 20-C , 23-O ) :   1.0900 B( 21-C , 22-C ) :   1.4778
B( 21-C , 41-H ) :   0.9081 B( 22-C , 42-H ) :   0.9137 B( 23-O , 24-C ) :   0.9378
B( 24-C , 43-H ) :   0.9631 B( 24-C , 44-H ) :   0.9633 B( 24-C , 45-H ) :   0.9725

Dispersion correction           -0.002950307
FINAL SINGLE POINT ENERGY     -1379.820407356370

DIPOLE MOMENT
-------------

Method             : SCF
Type of density    : Electron Density
Multiplicity       :   1
Irrep              :   0
Energy             : -1379.8174570491537452 Eh
Relativity type    :
Basis              : AO
                                X                 Y                 Z
Electronic contribution:     -0.830469911      -0.035155663      15.010592046
Nuclear contribution   :      0.927692702       0.034192798     -16.773164620
                        -----------------------------------------
Total Dipole Moment    :      0.097222791      -0.000962864      -1.762572574
                        -----------------------------------------
Magnitude (a.u.)       :      1.765252185
Magnitude (Debye)      :      4.486914474

Rotational constants in cm-1:             0.005344             0.005335             0.003167
Rotational constants in MHz :           160.221416           159.941805            94.929997

                             ****ORCA TERMINATED NORMALLY****
TOTAL RUN TIME: 0 days 0 hours 3 minutes 0 seconds 884 msec
