                         Program Version 6.0.0  -   RELEASE   -
|  1> ! RIJCOSX M062X def2-TZVP D3ZERO NormalSCF
|  2> %pal
|  3> nprocs 6
|  4> end
|  5>
|  6> * xyz 0 1
|  7>   C          -2.32465276533075     -3.76573182804515      1.03216094219342
|  8>   C          -1.53744886041848     -3.96165598740371     -0.11611966092998
|  9>   C          -0.85573883755635     -2.87999859350583     -0.69423215676585
| 10>   C          -0.95436003833848     -1.59762040841529     -0.11698431647732
| 11>   C          -1.75735518191212     -1.39854919654178      1.02418069145584
| 12>   C          -2.43798009374966     -2.48429328438450      1.59874719463808
| 13>   P          -0.01732762500728     -0.25707103412805     -0.94943594597630
| 14>   O           0.18800727781267     -0.55947273829897     -2.42337051539429
| 15>   C          -0.97292399889675      1.25771793360837     -0.58633315577160
| 16>   C          -0.80701281131937      1.99749513635545      0.59990572947374
| 17>   C          -1.59873625332368      3.13447319386122      0.82969312378274
| 18>   C          -2.54846250260492      3.53512258845943     -0.12574825272232
| 19>   C          -2.70381999887419      2.80237343509181     -1.31589737428439
| 20>   C          -1.91641031892328      1.66472718373953     -1.54938468355320
| 21>   C           1.55683923213834     -0.13015064345603      0.01864858771798
| 22>   C           1.69407347814504     -0.82322390154578      1.23865751368587
| 23>   C           2.92268697832696     -0.85678040614090      1.91852602814579
| 24>   C           4.04845206060156     -0.22849887652428      1.36445834723982
| 25>   C           3.93368335491752      0.44496662445925      0.14060364617085
| 26>   C           2.69502877725962      0.52438692299279     -0.52372089560495
| 27>   C           2.67972620238905      1.28471725190354     -1.81831111548711
| 28>   O           3.60528531330257      1.31512463822348     -2.60783941732081
| 29>   O           1.53448305140883      1.98986554901496     -1.97856601732231
| 30>   H          -2.86161999477690     -4.61469140678822      1.48267346865258
| 31>   H          -1.46041065520500     -4.96276826038833     -0.56755211232365
| 32>   H          -0.25133744541454     -3.00308949137531     -1.60615471180074
| 33>   H          -1.85938853984792     -0.39171791309894      1.45761812317940
| 34>   H          -3.06689719939826     -2.32770646596766      2.48861131351947
| 35>   H          -0.04579156456480      1.69436911588602      1.33580717281561
| 36>   H          -1.46755195710961      3.71636851965346      1.75496438505056
| 37>   H          -3.16587126573860      4.42852319720849      0.05460232552316
| 38>   H          -3.44098357017404      3.12326830231941     -2.06805396174766
| 39>   H          -2.00910266862298      1.08665102728718     -2.48202581247642
| 40>   H           0.83111823223834     -1.36297384379023      1.65517456382256
| 41>   H           3.00161683172242     -1.39629548665357      2.87464505124955
| 42>   H           5.01941663965536     -0.27009164672217      1.88068129058460
| 43>   H           4.80444057138030      0.92893234672458     -0.32587693987505
| 44>   H           1.54632614580937      2.34329544638574     -2.89475245306769
| 45> **                         ****END OF INPUT****

CARTESIAN COORDINATES (ANGSTROEM)
---------------------------------
  C     -2.324653   -3.765732    1.032161
  C     -1.537449   -3.961656   -0.116120
  C     -0.855739   -2.879999   -0.694232
  C     -0.954360   -1.597620   -0.116984
  C     -1.757355   -1.398549    1.024181
  C     -2.437980   -2.484293    1.598747
  P     -0.017328   -0.257071   -0.949436
  O      0.188007   -0.559473   -2.423371
  C     -0.972924    1.257718   -0.586333
  C     -0.807013    1.997495    0.599906
  C     -1.598736    3.134473    0.829693
  C     -2.548463    3.535123   -0.125748
  C     -2.703820    2.802373   -1.315897
  C     -1.916410    1.664727   -1.549385
  C      1.556839   -0.130151    0.018649
  C      1.694073   -0.823224    1.238658
  C      2.922687   -0.856780    1.918526
  C      4.048452   -0.228499    1.364458
  C      3.933683    0.444967    0.140604
  C      2.695029    0.524387   -0.523721
  C      2.679726    1.284717   -1.818311
  O      3.605285    1.315125   -2.607839
  O      1.534483    1.989866   -1.978566
  H     -2.861620   -4.614691    1.482673
  H     -1.460411   -4.962768   -0.567552
  H     -0.251337   -3.003089   -1.606155
  H     -1.859389   -0.391718    1.457618
  H     -3.066897   -2.327706    2.488611
  H     -0.045792    1.694369    1.335807
  H     -1.467552    3.716369    1.754964
  H     -3.165871    4.428523    0.054602
  H     -3.440984    3.123268   -2.068054
  H     -2.009103    1.086651   -2.482026
  H      0.831118   -1.362974    1.655175
  H      3.001617   -1.396295    2.874645
  H      5.019417   -0.270092    1.880681
  H      4.804441    0.928932   -0.325877
  H      1.546326    2.343295   -2.894752

 Total Charge           Charge          ....    0
 Multiplicity           Mult            ....    1
 Number of Electrons    NEL             ....  168
 Basis Dimension        Dim             ....  809

ORBITAL ENERGIES
----------------

  NO   OCC          E(Eh)            E(eV)
   0   2.0000     -78.103578     -2125.3064
   1   2.0000     -19.674006      -535.3569
   2   2.0000     -19.621390      -533.9252
   3   2.0000     -19.569369      -532.5096
   4   2.0000     -10.685024      -290.7543
   5   2.0000     -10.583071      -287.9800
   6   2.0000     -10.578086      -287.8444
   7   2.0000     -10.571595      -287.6677
   8   2.0000     -10.570537      -287.6389
   9   2.0000     -10.569866      -287.6207
  10   2.0000     -10.569184      -287.6021
  11   2.0000     -10.565416      -287.4996
  12   2.0000     -10.564532      -287.4755
  13   2.0000     -10.563148      -287.4379
  14   2.0000     -10.562084      -287.4089
  15   2.0000     -10.561924      -287.4046
  16   2.0000     -10.561731      -287.3993
  17   2.0000     -10.561410      -287.3906
  18   2.0000     -10.560661      -287.3702
  19   2.0000     -10.560320      -287.3609
  20   2.0000     -10.560157      -287.3565
  21   2.0000     -10.559251      -287.3318
  22   2.0000     -10.559047      -287.3263
  23   2.0000      -6.909454      -188.0158
  24   2.0000      -5.026686      -136.7831
  25   2.0000      -5.026571      -136.7800
  26   2.0000      -5.024770      -136.7309
  27   2.0000      -1.231570       -33.5127
  28   2.0000      -1.137958       -30.9654
  29   2.0000      -1.065516       -28.9942
  30   2.0000      -0.979512       -26.6539
  31   2.0000      -0.967992       -26.3404
  32   2.0000      -0.964773       -26.2528
  33   2.0000      -0.879050       -23.9202
  34   2.0000      -0.874533       -23.7972
  35   2.0000      -0.854680       -23.2570
  36   2.0000      -0.851822       -23.1793
  37   2.0000      -0.850502       -23.1433
  38   2.0000      -0.847479       -23.0611
  39   2.0000      -0.760321       -20.6894
  40   2.0000      -0.737123       -20.0581
  41   2.0000      -0.703155       -19.1338
  42   2.0000      -0.699147       -19.0248
  43   2.0000      -0.695438       -18.9238
  44   2.0000      -0.687629       -18.7113
  45   2.0000      -0.676485       -18.4081
  46   2.0000      -0.643875       -17.5207
  47   2.0000      -0.610002       -16.5990
  48   2.0000      -0.601966       -16.3803
  49   2.0000      -0.584762       -15.9122
  50   2.0000      -0.579398       -15.7662
  51   2.0000      -0.560305       -15.2467
  52   2.0000      -0.551263       -15.0006
  53   2.0000      -0.535099       -14.5608
  54   2.0000      -0.532183       -14.4814
  55   2.0000      -0.528362       -14.3775
  56   2.0000      -0.523526       -14.2459
  57   2.0000      -0.517423       -14.0798
  58   2.0000      -0.516647       -14.0587
  59   2.0000      -0.500089       -13.6081
  60   2.0000      -0.497514       -13.5381
  61   2.0000      -0.495458       -13.4821
  62   2.0000      -0.491890       -13.3850
  63   2.0000      -0.481380       -13.0990
  64   2.0000      -0.462651       -12.5894
  65   2.0000      -0.453497       -12.3403
  66   2.0000      -0.450062       -12.2468
  67   2.0000      -0.443346       -12.0640
  68   2.0000      -0.432918       -11.7803
  69   2.0000      -0.425380       -11.5752
  70   2.0000      -0.416867       -11.3435
  71   2.0000      -0.412746       -11.2314
  72   2.0000      -0.409987       -11.1563
  73   2.0000      -0.409053       -11.1309
  74   2.0000      -0.394636       -10.7386
  75   2.0000      -0.365725        -9.9519
  76   2.0000      -0.344542        -9.3755
  77   2.0000      -0.340462        -9.2645
  78   2.0000      -0.327774        -8.9192
  79   2.0000      -0.326344        -8.8803
  80   2.0000      -0.323412        -8.8005
  81   2.0000      -0.318953        -8.6792
  82   2.0000      -0.318202        -8.6587
  83   2.0000      -0.313135        -8.5208
  84   0.0000      -0.033713        -0.9174
  85   0.0000      -0.013775        -0.3748
  86   0.0000      -0.009727        -0.2647
  87   0.0000      -0.004272        -0.1162
  88   0.0000       0.004971         0.1353

MULLIKEN ATOMIC CHARGES
-----------------------
   0 C :   -0.131312
   1 C :   -0.139828
   2 C :   -0.131654
   3 C :   -0.136704
   4 C :   -0.176899
   5 C :   -0.146488
   6 P :    0.669698
   7 O :   -0.593327
   8 C :   -0.041864
   9 C :   -0.198239
  10 C :   -0.140647
  11 C :   -0.136314
  12 C :   -0.135459
  13 C :   -0.165900
  14 C :   -0.206495
  15 C :   -0.086167
  16 C :   -0.164921
  17 C :   -0.114756
  18 C :   -0.171570
  19 C :    0.097502
  20 C :    0.305224
  21 O :   -0.328719
  22 O :   -0.408799
  23 H :    0.150305
  24 H :    0.151746
  25 H :    0.189564
  26 H :    0.194306
  27 H :    0.149838
  28 H :    0.188745
  29 H :    0.149854
  30 H :    0.149676
  31 H :    0.151213
  32 H :    0.186242
  33 H :    0.188660
  34 H :    0.154027
  35 H :    0.154490
  36 H :    0.173647
  37 H :    0.351326
Sum of atomic charges:   -0.0000000

LOEWDIN ATOMIC CHARGES
----------------------
   0 C :   -0.131257
   1 C :   -0.135042
   2 C :   -0.114643
   3 C :   -0.233340
   4 C :   -0.137508
   5 C :   -0.141598
   6 P :    0.692118
   7 O :   -0.302974
   8 C :   -0.235377
   9 C :   -0.138418
  10 C :   -0.139697
  11 C :   -0.132811
  12 C :   -0.135767
  13 C :   -0.119415
  14 C :   -0.180737
  15 C :   -0.126717
  16 C :   -0.125869
  17 C :   -0.123883
  18 C :   -0.076343
  19 C :   -0.099238
  20 C :   -0.441364
  21 O :    0.096128
  22 O :    0.111392
  23 H :    0.149014
  24 H :    0.150154
  25 H :    0.161808
  26 H :    0.156605
  27 H :    0.149079
  28 H :    0.155275
  29 H :    0.148964
  30 H :    0.148751
  31 H :    0.149627
  32 H :    0.160462
  33 H :    0.161858
  34 H :    0.151497
  35 H :    0.151902
  36 H :    0.163581
  37 H :    0.213781

  Mayer bond orders larger than 0.100000
B(  0-C ,  1-C ) :   1.4301 B(  0-C ,  5-C ) :   1.4375 B(  0-C , 23-H ) :   0.9470
B(  1-C ,  2-C ) :   1.4398 B(  1-C , 24-H ) :   0.9472 B(  2-C ,  3-C ) :   1.4397
B(  2-C , 25-H ) :   0.9083 B(  3-C ,  4-C ) :   1.3325 B(  3-C ,  6-P ) :   0.9019
B(  4-C ,  5-C ) :   1.4805 B(  4-C , 26-H ) :   0.9162 B(  5-C , 27-H ) :   0.9445
B(  6-P ,  7-O ) :   1.9212 B(  6-P ,  8-C ) :   0.9187 B(  6-P , 14-C ) :   0.9134
B(  8-C ,  9-C ) :   1.3237 B(  8-C , 13-C ) :   1.4199 B(  9-C , 10-C ) :   1.4698
B(  9-C , 28-H ) :   0.9289 B( 10-C , 11-C ) :   1.4423 B( 10-C , 29-H ) :   0.9423
B( 11-C , 12-C ) :   1.4311 B( 11-C , 30-H ) :   0.9462 B( 12-C , 13-C ) :   1.4426
B( 12-C , 31-H ) :   0.9463 B( 13-C , 32-H ) :   0.9126 B( 14-C , 15-C ) :   1.3369
B( 14-C , 19-C ) :   1.3423 B( 15-C , 16-C ) :   1.4461 B( 15-C , 33-H ) :   0.9242
B( 16-C , 17-C ) :   1.4401 B( 16-C , 34-H ) :   0.9403 B( 17-C , 18-C ) :   1.4285
B( 17-C , 35-H ) :   0.9477 B( 18-C , 19-C ) :   1.4523 B( 18-C , 36-H ) :   0.9158
B( 19-C , 20-C ) :   0.9326 B( 20-C , 21-O ) :   2.0624 B( 20-C , 22-O ) :   1.1957
B( 22-O , 37-H ) :   0.8488

Dispersion correction           -0.002831629
FINAL SINGLE POINT ENERGY     -1300.099772926974

DIPOLE MOMENT
-------------

Method             : SCF
Type of density    : Electron Density
Multiplicity       :   1
Irrep              :   0
Energy             : -1300.0969412982092308 Eh
Relativity type    :
Basis              : AO
                                X                 Y                 Z
Electronic contribution:      6.073758271       1.545057252      -7.579414001
Nuclear contribution   :     -6.914467284      -1.379551383       9.634443195
                        -----------------------------------------
Total Dipole Moment    :     -0.840709013       0.165505869       2.055029194
                        -----------------------------------------
Magnitude (a.u.)       :      2.226505968
Magnitude (Debye)      :      5.659328416

Rotational constants in cm-1:             0.009512             0.007951             0.005693
Rotational constants in MHz :           285.168150           238.357034           170.674646

                             ****ORCA TERMINATED NORMALLY****
TOTAL RUN TIME: 0 days 0 hours 3 minutes 7 seconds 401 msec
