                         Program Version 6.0.0  -   RELEASE   -
|  1> ! RIJCOSX M062X def2-TZVP D3ZERO NormalSCF
|  2> %pal
|  3> nprocs 6
|  4> end
|  5>
|  6> * xyz 0 1
|  7>   C          -3.70033944204359     -4.19290018374116      1.00254429908596
|  8>   C          -2.76857154519909     -3.19464159201717      0.35865644879646
|  9>   C          -1.90514186972877     -3.57667265393982     -0.69098017630055
| 10>   C          -1.07101492750765     -2.64162558068724     -1.31832426520229
| 11>   C          -1.05503365644694     -1.29296927340585     -0.90023862145630
| 12>   C          -1.91300894191782     -0.90490849838481      0.14906563706269
| 13>   C          -2.75589932704514     -1.84356414062310      0.76348947171113
| 14>   P           0.10679023812883     -0.14463927020890     -1.77055198756890
| 15>   C          -0.43907818857061      1.48811952882109     -1.09100506455991
| 16>   C           0.14849191547102      2.11586107017130      0.02622799818579
| 17>   C          -0.33519136641526      3.35051611590526      0.48535261453625
| 18>   C          -1.41859452425144      3.99559882592451     -0.14686135958858
| 19>   C          -2.00346297873373      3.36009749759662     -1.26359609871760
| 20>   C          -1.51640905739860      2.13394101151132     -1.73591377383271
| 21>   C          -1.91465527840920      5.33827985824773      0.33324333785011
| 22>   C           1.66301122151885     -0.42296897678690     -0.80746102104307
| 23>   C           2.84933311421685      0.15663706411715     -1.30812330764101
| 24>   C           4.06287739786066      0.01110254251985     -0.62276336867197
| 25>   C           4.13991023421237     -0.73646814845889      0.57237030370876
| 26>   C           2.95330213928610     -1.32188533864549      1.06095246648289
| 27>   C           1.73194752724578     -1.16844651312924      0.38716363032971
| 28>   C           5.45680488312793     -0.93247784475551      1.28427238172724
| 29>   H          -3.27603832417787     -5.21668130085908      0.98855078269547
| 30>   H          -3.92308158473268     -3.92440047445659      2.05446610378184
| 31>   H          -4.67225256087846     -4.23562637631833      0.46396798218870
| 32>   H          -1.89326196040142     -4.62626370449392     -1.02691790707324
| 33>   H          -0.41278474338517     -2.96220703596050     -2.14236758181822
| 34>   H          -1.91535500771182      0.14039751248469      0.49288906619642
| 35>   H          -3.41677120401437     -1.51987400772658      1.58416946432904
| 36>   H           0.98718654080866      1.62922702616822      0.54647426459488
| 37>   H           0.13704478411751      3.82230760229071      1.36258616278117
| 38>   H          -2.85234358124759      3.84038991010137     -1.77682361149213
| 39>   H          -1.98424633581014      1.66200835088535     -2.61542648032397
| 40>   H          -1.37757332560693      6.16740859181758     -0.17722454556681
| 41>   H          -1.75282276203376      5.46789942030645      1.42194603959151
| 42>   H          -2.99470627989984      5.47353883493370      0.12485020211343
| 43>   H           2.81612420757155      0.73724234842640     -2.24453705859156
| 44>   H           4.97428712502592      0.48104830591596     -1.02662122745441
| 45>   H           2.98494708851615     -1.90653169478251      1.99488012520168
| 46>   H           0.81955051554492     -1.62694671608161      0.79723011391750
| 47>   H           6.13799607078771     -0.07223623728184      1.12857690649199
| 48>   H           5.31558942149631     -1.06990494555337      2.37490763598408
| 49>   H           5.98244234863077     -1.83677890984684      0.90690201755855
| 50> **                         ****END OF INPUT****

CARTESIAN COORDINATES (ANGSTROEM)
---------------------------------
  C     -3.700339   -4.192900    1.002544
  C     -2.768572   -3.194642    0.358656
  C     -1.905142   -3.576673   -0.690980
  C     -1.071015   -2.641626   -1.318324
  C     -1.055034   -1.292969   -0.900239
  C     -1.913009   -0.904908    0.149066
  C     -2.755899   -1.843564    0.763489
  P      0.106790   -0.144639   -1.770552
  C     -0.439078    1.488120   -1.091005
  C      0.148492    2.115861    0.026228
  C     -0.335191    3.350516    0.485353
  C     -1.418595    3.995599   -0.146861
  C     -2.003463    3.360097   -1.263596
  C     -1.516409    2.133941   -1.735914
  C     -1.914655    5.338280    0.333243
  C      1.663011   -0.422969   -0.807461
  C      2.849333    0.156637   -1.308123
  C      4.062877    0.011103   -0.622763
  C      4.139910   -0.736468    0.572370
  C      2.953302   -1.321885    1.060952
  C      1.731948   -1.168447    0.387164
  C      5.456805   -0.932478    1.284272
  H     -3.276038   -5.216681    0.988551
  H     -3.923082   -3.924400    2.054466
  H     -4.672253   -4.235626    0.463968
  H     -1.893262   -4.626264   -1.026918
  H     -0.412785   -2.962207   -2.142368
  H     -1.915355    0.140398    0.492889
  H     -3.416771   -1.519874    1.584169
  H      0.987187    1.629227    0.546474
  H      0.137045    3.822308    1.362586
  H     -2.852344    3.840390   -1.776824
  H     -1.984246    1.662008   -2.615426
  H     -1.377573    6.167409   -0.177225
  H     -1.752823    5.467899    1.421946
  H     -2.994706    5.473539    0.124850
  H      2.816124    0.737242   -2.244537
  H      4.974287    0.481048   -1.026621
  H      2.984947   -1.906532    1.994880
  H      0.819551   -1.626947    0.797230
  H      6.137996   -0.072236    1.128577
  H      5.315589   -1.069905    2.374908
  H      5.982442   -1.836779    0.906902

 Total Charge           Charge          ....    0
 Multiplicity           Mult            ....    1
 Number of Electrons    NEL             ....  162
 Basis Dimension        Dim             ....  814

ORBITAL ENERGIES
----------------

  NO   OCC          E(Eh)            E(eV)
   0   2.0000     -78.025915     -2123.1931
   1   2.0000     -10.556184      -287.2484
   2   2.0000     -10.556170      -287.2480
   3   2.0000     -10.556139      -287.2472
   4   2.0000     -10.547957      -287.0245
   5   2.0000     -10.547928      -287.0237
   6   2.0000     -10.547920      -287.0235
   7   2.0000     -10.547266      -287.0057
   8   2.0000     -10.547235      -287.0049
   9   2.0000     -10.547228      -287.0047
  10   2.0000     -10.545259      -286.9511
  11   2.0000     -10.545226      -286.9502
  12   2.0000     -10.545185      -286.9491
  13   2.0000     -10.544487      -286.9301
  14   2.0000     -10.544464      -286.9295
  15   2.0000     -10.544457      -286.9293
  16   2.0000     -10.543724      -286.9093
  17   2.0000     -10.543693      -286.9085
  18   2.0000     -10.543691      -286.9084
  19   2.0000     -10.540144      -286.8119
  20   2.0000     -10.540128      -286.8115
  21   2.0000     -10.540094      -286.8105
  22   2.0000      -6.841876      -186.1769
  23   2.0000      -4.956524      -134.8739
  24   2.0000      -4.956110      -134.8626
  25   2.0000      -4.956098      -134.8623
  26   2.0000      -0.960497       -26.1364
  27   2.0000      -0.953677       -25.9509
  28   2.0000      -0.953648       -25.9501
  29   2.0000      -0.882126       -24.0039
  30   2.0000      -0.863001       -23.4834
  31   2.0000      -0.862978       -23.4828
  32   2.0000      -0.836060       -22.7504
  33   2.0000      -0.835906       -22.7461
  34   2.0000      -0.835902       -22.7461
  35   2.0000      -0.794469       -21.6186
  36   2.0000      -0.768186       -20.9034
  37   2.0000      -0.768155       -20.9025
  38   2.0000      -0.698640       -19.0110
  39   2.0000      -0.685130       -18.6433
  40   2.0000      -0.685026       -18.6405
  41   2.0000      -0.684987       -18.6394
  42   2.0000      -0.655428       -17.8351
  43   2.0000      -0.655407       -17.8345
  44   2.0000      -0.627300       -17.0697
  45   2.0000      -0.566938       -15.4272
  46   2.0000      -0.566885       -15.4257
  47   2.0000      -0.537682       -14.6311
  48   2.0000      -0.528821       -14.3900
  49   2.0000      -0.528292       -14.3756
  50   2.0000      -0.528278       -14.3752
  51   2.0000      -0.516575       -14.0567
  52   2.0000      -0.516573       -14.0567
  53   2.0000      -0.502405       -13.6711
  54   2.0000      -0.486521       -13.2389
  55   2.0000      -0.486485       -13.2379
  56   2.0000      -0.486412       -13.2360
  57   2.0000      -0.480337       -13.0706
  58   2.0000      -0.480041       -13.0626
  59   2.0000      -0.480025       -13.0621
  60   2.0000      -0.455484       -12.3944
  61   2.0000      -0.455473       -12.3940
  62   2.0000      -0.449046       -12.2192
  63   2.0000      -0.445348       -12.1185
  64   2.0000      -0.445327       -12.1180
  65   2.0000      -0.425512       -11.5788
  66   2.0000      -0.419881       -11.4255
  67   2.0000      -0.419854       -11.4248
  68   2.0000      -0.413981       -11.2650
  69   2.0000      -0.394002       -10.7213
  70   2.0000      -0.393996       -10.7212
  71   2.0000      -0.393520       -10.7082
  72   2.0000      -0.371280       -10.1031
  73   2.0000      -0.371251       -10.1022
  74   2.0000      -0.322905        -8.7867
  75   2.0000      -0.311291        -8.4707
  76   2.0000      -0.304774        -8.2933
  77   2.0000      -0.304739        -8.2924
  78   2.0000      -0.295806        -8.0493
  79   2.0000      -0.295712        -8.0467
  80   2.0000      -0.257509        -7.0072
  81   0.0000       0.002423         0.0659
  82   0.0000       0.004177         0.1137
  83   0.0000       0.004260         0.1159
  84   0.0000       0.021890         0.5957
  85   0.0000       0.025309         0.6887

MULLIKEN ATOMIC CHARGES
-----------------------
   0 C :   -0.478873
   1 C :    0.120247
   2 C :   -0.174676
   3 C :   -0.146101
   4 C :   -0.114815
   5 C :   -0.132057
   6 C :   -0.194486
   7 P :    0.117202
   8 C :   -0.115773
   9 C :   -0.131963
  10 C :   -0.194263
  11 C :    0.121393
  12 C :   -0.176525
  13 C :   -0.143654
  14 C :   -0.477993
  15 C :   -0.118224
  16 C :   -0.143378
  17 C :   -0.176824
  18 C :    0.120724
  19 C :   -0.193244
  20 C :   -0.130350
  21 C :   -0.479585
  22 H :    0.146961
  23 H :    0.146590
  24 H :    0.160729
  25 H :    0.146181
  26 H :    0.152674
  27 H :    0.182794
  28 H :    0.145695
  29 H :    0.182435
  30 H :    0.145268
  31 H :    0.145394
  32 H :    0.152516
  33 H :    0.160568
  34 H :    0.146741
  35 H :    0.146626
  36 H :    0.152880
  37 H :    0.146151
  38 H :    0.145607
  39 H :    0.183025
  40 H :    0.146740
  41 H :    0.146659
  42 H :    0.160984
Sum of atomic charges:   -0.0000000

LOEWDIN ATOMIC CHARGES
----------------------
   0 C :   -0.268771
   1 C :   -0.168270
   2 C :   -0.120833
   3 C :   -0.141856
   4 C :   -0.280893
   5 C :   -0.135854
   6 C :   -0.120142
   7 P :    0.695465
   8 C :   -0.280977
   9 C :   -0.135896
  10 C :   -0.120049
  11 C :   -0.168261
  12 C :   -0.120864
  13 C :   -0.141721
  14 C :   -0.268661
  15 C :   -0.280808
  16 C :   -0.141797
  17 C :   -0.120919
  18 C :   -0.168321
  19 C :   -0.120053
  20 C :   -0.135978
  21 C :   -0.268812
  22 H :    0.130964
  23 H :    0.131006
  24 H :    0.135650
  25 H :    0.149229
  26 H :    0.150625
  27 H :    0.158234
  28 H :    0.149124
  29 H :    0.158240
  30 H :    0.149109
  31 H :    0.149191
  32 H :    0.150607
  33 H :    0.135625
  34 H :    0.130992
  35 H :    0.130908
  36 H :    0.150662
  37 H :    0.149203
  38 H :    0.149136
  39 H :    0.158181
  40 H :    0.130930
  41 H :    0.130987
  42 H :    0.135667

  Mayer bond orders larger than 0.100000
B(  0-C ,  1-C ) :   0.9278 B(  0-C , 22-H ) :   0.9816 B(  0-C , 23-H ) :   0.9826
B(  0-C , 24-H ) :   0.9480 B(  1-C ,  2-C ) :   1.3909 B(  1-C ,  6-C ) :   1.3992
B(  2-C ,  3-C ) :   1.4871 B(  2-C , 25-H ) :   0.9345 B(  3-C ,  4-C ) :   1.3915
B(  3-C , 26-H ) :   0.9378 B(  4-C ,  5-C ) :   1.3336 B(  4-C ,  7-P ) :   0.9346
B(  5-C ,  6-C ) :   1.4944 B(  5-C , 27-H ) :   0.9278 B(  6-C , 28-H ) :   0.9264
B(  7-P ,  8-C ) :   0.9349 B(  7-P , 15-C ) :   0.9333 B(  8-C ,  9-C ) :   1.3351
B(  8-C , 13-C ) :   1.3932 B(  9-C , 10-C ) :   1.4937 B(  9-C , 29-H ) :   0.9276
B( 10-C , 11-C ) :   1.3993 B( 10-C , 30-H ) :   0.9267 B( 11-C , 12-C ) :   1.3909
B( 11-C , 14-C ) :   0.9287 B( 12-C , 13-C ) :   1.4867 B( 12-C , 31-H ) :   0.9352
B( 13-C , 32-H ) :   0.9374 B( 14-C , 33-H ) :   0.9480 B( 14-C , 34-H ) :   0.9822
B( 14-C , 35-H ) :   0.9818 B( 15-C , 16-C ) :   1.3909 B( 15-C , 20-C ) :   1.3337
B( 16-C , 17-C ) :   1.4869 B( 16-C , 36-H ) :   0.9376 B( 17-C , 18-C ) :   1.3898
B( 17-C , 37-H ) :   0.9346 B( 18-C , 19-C ) :   1.3990 B( 18-C , 21-C ) :   0.9286
B( 19-C , 20-C ) :   1.4945 B( 19-C , 38-H ) :   0.9260 B( 20-C , 39-H ) :   0.9273
B( 21-C , 40-H ) :   0.9818 B( 21-C , 41-H ) :   0.9821 B( 21-C , 42-H ) :   0.9479

Dispersion correction           -0.002676905
FINAL SINGLE POINT ENERGY     -1154.173279028891

DIPOLE MOMENT
-------------

Method             : SCF
Type of density    : Electron Density
Multiplicity       :   1
Irrep              :   0
Energy             : -1154.1706021236329889 Eh
Relativity type    :
Basis              : AO
                                X                 Y                 Z
Electronic contribution:      0.685974498      -0.925140544     -11.393845938
Nuclear contribution   :     -0.731978663       0.984815159      12.123298194
                        -----------------------------------------
Total Dipole Moment    :     -0.046004165       0.059674615       0.729452256
                        -----------------------------------------
Magnitude (a.u.)       :      0.733333510
Magnitude (Debye)      :      1.863985649

Rotational constants in cm-1:             0.007689             0.007685             0.004462
Rotational constants in MHz :           230.516207           230.395201           133.771513

                             ****ORCA TERMINATED NORMALLY****
TOTAL RUN TIME: 0 days 0 hours 2 minutes 40 seconds 583 msec
