                         Program Version 6.0.0  -   RELEASE   -
|  1> ! RI BP86 def2-SVP D3BJ TIGHTSCF Opt
|  2> %pal
|  3> nprocs 6
|  4> end
|  5>
|  6> * xyz 0 1
|  7> C     -0.728450   -1.706077    1.580154
|  8> C     -1.252068   -1.260757    0.209030
|  9> C     -2.704228   -0.770032    0.397222
| 10> C     -1.392408   -2.511102   -0.699513
| 11> P     -0.191138    0.016725   -0.659923
| 12> C     -0.466731    1.726197    0.057269
| 13> C     -1.823027    2.281406   -0.453330
| 14> C     -0.455432    1.789898    1.589679
| 15> C      0.573315    2.742347   -0.463058
| 16> C      1.621324   -0.456911   -0.602837
| 17> C      2.315479   -0.182835    0.737126
| 18> C      2.382873    0.302546   -1.721665
| 19> C      1.837273   -1.946622   -0.947980
| 20> H      0.217805   -2.246806    1.513208
| 21> H     -1.435975   -2.392467    2.062078
| 22> H     -0.582301   -0.869635    2.267413
| 23> H     -2.785972    0.011389    1.155293
| 24> H     -3.137110   -0.402535   -0.540337
| 25> H     -3.354029   -1.582696    0.747274
| 26> H     -0.471390   -3.086556   -0.791276
| 27> H     -1.721078   -2.243628   -1.711249
| 28> H     -2.134358   -3.210502   -0.293323
| 29> H     -2.688069    1.774480   -0.026046
| 30> H     -1.903730    2.216338   -1.545316
| 31> H     -1.941372    3.338614   -0.183243
| 32> H      0.465329    1.390840    2.021269
| 33> H     -1.291174    1.249499    2.038872
| 34> H     -0.544375    2.827220    1.936125
| 35> H      0.646062    2.730350   -1.556687
| 36> H      1.566248    2.577146   -0.040248
| 37> H      0.302880    3.766966   -0.176312
| 38> H      3.347812   -0.554406    0.723103
| 39> H      1.816117   -0.669879    1.577806
| 40> H      2.381891    0.882811    0.965722
| 41> H      2.478792    1.371637   -1.532766
| 42> H      1.899959    0.178212   -2.698659
| 43> H      3.410633   -0.069919   -1.819763
| 44> H      1.498607   -2.612944   -0.152182
| 45> H      2.903684   -2.171366   -1.080107
| 46> H      1.338330   -2.226948   -1.882822
| 47> **                         ****END OF INPUT****
 Total Charge           Charge          ....    0
 Multiplicity           Mult            ....    1
 Number of Electrons    NEL             ....  114
Dispersion correction           -0.081126351
FINAL SINGLE POINT ENERGY      -814.502061546576
Dispersion correction             ... done (  0.1 sec)
Dispersion correction           -0.081864443
FINAL SINGLE POINT ENERGY      -814.512505998529
Dispersion correction             ... done (  0.1 sec)
Dispersion correction           -0.080928981
FINAL SINGLE POINT ENERGY      -814.514916651821
Dispersion correction             ... done (  0.1 sec)
FINAL SINGLE POINT ENERGY      -814.513383256006
FINAL SINGLE POINT ENERGY      -814.516265246755
FINAL SINGLE POINT ENERGY      -814.515886376762
FINAL SINGLE POINT ENERGY      -814.514533466608
FINAL SINGLE POINT ENERGY      -814.515836370787
FINAL SINGLE POINT ENERGY      -814.516245484790
FINAL SINGLE POINT ENERGY      -814.516437718430
FINAL SINGLE POINT ENERGY      -814.516326552086
FINAL SINGLE POINT ENERGY      -814.516529662785
FINAL SINGLE POINT ENERGY      -814.516525774039
FINAL SINGLE POINT ENERGY      -814.516550708555
Dispersion correction             ... done (  0.1 sec)
Dispersion correction           -0.080948900
FINAL SINGLE POINT ENERGY      -814.516551231075
Dispersion correction             ... done (  0.1 sec)
Dispersion correction           -0.080946296
FINAL SINGLE POINT ENERGY      -814.516552005237
Dispersion correction             ... done (  0.1 sec)
                    ***********************HURRAY********************

CARTESIAN COORDINATES (ANGSTROEM)
---------------------------------
  C     -0.685348   -1.717853    1.571150
  C     -1.255092   -1.285088    0.208290
  C     -2.684767   -0.743032    0.419177
  C     -1.408953   -2.520962   -0.710829
  P     -0.234805    0.021839   -0.812534
  C     -0.485012    1.742382    0.060968
  C     -1.832062    2.296229   -0.464152
  C     -0.482465    1.762688    1.599609
  C      0.595642    2.717623   -0.451260
  C      1.643761   -0.447891   -0.608322
  C      2.304627   -0.143788    0.747939
  C      2.399231    0.298040   -1.734866
  C      1.813263   -1.950445   -0.916966
  H      0.287921   -2.236072    1.477656
  H     -1.386213   -2.432714    2.057150
  H     -0.552962   -0.863456    2.260636
  H     -2.730941    0.081720    1.154574
  H     -3.137309   -0.393470   -0.530790
  H     -3.324334   -1.564277    0.809551
  H     -0.460294   -3.057544   -0.884006
  H     -1.820329   -2.232572   -1.699243
  H     -2.115282   -3.240906   -0.242158
  H     -2.707230    1.733754   -0.095779
  H     -1.862336    2.284392   -1.572432
  H     -1.951340    3.349878   -0.128837
  H      0.468942    1.393229    2.025864
  H     -1.305735    1.161611    2.029623
  H     -0.623637    2.806917    1.957566
  H      0.652011    2.724348   -1.558587
  H      1.602201    2.496617   -0.050029
  H      0.332179    3.747064   -0.124912
  H      3.363522   -0.485464    0.730453
  H      1.803086   -0.661690    1.586427
  H      2.319725    0.938791    0.976030
  H      2.431774    1.391442   -1.588329
  H      1.935789    0.101000   -2.722666
  H      3.450676   -0.062552   -1.771043
  H      1.405170   -2.602599   -0.122702
  H      2.897982   -2.178543   -1.002431
  H      1.338941   -2.228648   -1.879789

 Multiplicity           Mult            ....    1
 Number of Electrons    NEL             ....  114
 Basis Dimension        Dim             ....  321

ORBITAL ENERGIES
----------------

  NO   OCC          E(Eh)            E(eV)
   0   2.0000     -76.325548     -2076.9238
   1   2.0000      -9.932032      -270.2643
   2   2.0000      -9.931932      -270.2616
   3   2.0000      -9.931886      -270.2603
   4   2.0000      -9.908115      -269.6135
   5   2.0000      -9.908008      -269.6106
   6   2.0000      -9.907974      -269.6097
   7   2.0000      -9.907091      -269.5857
   8   2.0000      -9.907032      -269.5840
   9   2.0000      -9.906932      -269.5813
  10   2.0000      -9.902968      -269.4735
  11   2.0000      -9.902953      -269.4731
  12   2.0000      -9.902938      -269.4726
  13   2.0000      -6.293038      -171.2423
  14   2.0000      -4.514583      -122.8481
  15   2.0000      -4.514582      -122.8480
  16   2.0000      -4.510770      -122.7443
  17   2.0000      -0.742336       -20.2000
  18   2.0000      -0.721244       -19.6261
  19   2.0000      -0.721178       -19.6242
  20   2.0000      -0.618651       -16.8344
  21   2.0000      -0.613505       -16.6943
  22   2.0000      -0.613471       -16.6934
  23   2.0000      -0.606876       -16.5139
  24   2.0000      -0.606790       -16.5116
  25   2.0000      -0.597777       -16.2663
  26   2.0000      -0.560932       -15.2637
  27   2.0000      -0.483401       -13.1540
  28   2.0000      -0.483288       -13.1509
  29   2.0000      -0.457216       -12.4415
  30   2.0000      -0.412949       -11.2369
  31   2.0000      -0.412888       -11.2353
  32   2.0000      -0.400650       -10.9022
  33   2.0000      -0.395206       -10.7541
  34   2.0000      -0.395038       -10.7495
  35   2.0000      -0.378994       -10.3129
  36   2.0000      -0.376608       -10.2480
  37   2.0000      -0.376505       -10.2452
  38   2.0000      -0.356353        -9.6968
  39   2.0000      -0.347257        -9.4493
  40   2.0000      -0.342248        -9.3130
  41   2.0000      -0.342176        -9.3111
  42   2.0000      -0.332559        -9.0494
  43   2.0000      -0.332535        -9.0487
  44   2.0000      -0.328017        -8.9258
  45   2.0000      -0.321435        -8.7467
  46   2.0000      -0.316338        -8.6080
  47   2.0000      -0.316150        -8.6029
  48   2.0000      -0.301623        -8.2076
  49   2.0000      -0.301547        -8.2055
  50   2.0000      -0.300265        -8.1706
  51   2.0000      -0.288467        -7.8496
  52   2.0000      -0.288410        -7.8480
  53   2.0000      -0.271483        -7.3874
  54   2.0000      -0.244884        -6.6636
  55   2.0000      -0.244841        -6.6625
  56   2.0000      -0.178022        -4.8442
  57   0.0000       0.023837         0.6486
  58   0.0000       0.024049         0.6544
  59   0.0000       0.025125         0.6837
  60   0.0000       0.038091         1.0365
  61   0.0000       0.055189         1.5018

MULLIKEN ATOMIC CHARGES
-----------------------
   0 C :    0.047682
   1 C :   -0.406958
   2 C :    0.017830
   3 C :    0.038514
   4 P :    0.262753
   5 C :   -0.406514
   6 C :    0.037858
   7 C :    0.047241
   8 C :    0.018894
   9 C :   -0.407007
  10 C :    0.047809
  11 C :    0.038406
  12 C :    0.018455
  13 H :    0.027832
  14 H :    0.012873
  15 H :    0.020812
  16 H :    0.033585
  17 H :    0.040840
  18 H :    0.017736
  19 H :    0.014360
  20 H :    0.031746
  21 H :    0.015622
  22 H :    0.014658
  23 H :    0.031970
  24 H :    0.015689
  25 H :    0.020343
  26 H :    0.027882
  27 H :    0.012900
  28 H :    0.040625
  29 H :    0.033505
  30 H :    0.017637
  31 H :    0.012848
  32 H :    0.019956
  33 H :    0.027672
  34 H :    0.014704
  35 H :    0.031904
  36 H :    0.015581
  37 H :    0.033330
  38 H :    0.017675
  39 H :    0.040750
Sum of atomic charges:   -0.0000000

LOEWDIN ATOMIC CHARGES
----------------------
   0 C :   -0.068290
   1 C :   -0.172733
   2 C :   -0.066204
   3 C :   -0.070819
   4 P :    0.466012
   5 C :   -0.172893
   6 C :   -0.070785
   7 C :   -0.068304
   8 C :   -0.066136
   9 C :   -0.172700
  10 C :   -0.068226
  11 C :   -0.070717
  12 C :   -0.066171
  13 H :    0.021752
  14 H :    0.026109
  15 H :    0.025563
  16 H :    0.020507
  17 H :    0.028118
  18 H :    0.026853
  19 H :    0.023174
  20 H :    0.026742
  21 H :    0.024002
  22 H :    0.023240
  23 H :    0.026642
  24 H :    0.023975
  25 H :    0.025509
  26 H :    0.021703
  27 H :    0.026132
  28 H :    0.028155
  29 H :    0.020479
  30 H :    0.026855
  31 H :    0.026061
  32 H :    0.025563
  33 H :    0.021639
  34 H :    0.023171
  35 H :    0.026650
  36 H :    0.024036
  37 H :    0.020425
  38 H :    0.026808
  39 H :    0.028101

  Mayer bond orders larger than 0.100000
B(  0-C ,  1-C ) :   1.0216 B(  0-C , 13-H ) :   0.9471 B(  0-C , 14-H ) :   0.9397
B(  0-C , 15-H ) :   0.9523 B(  1-C ,  2-C ) :   1.0364 B(  1-C ,  3-C ) :   1.0203
B(  1-C ,  4-P ) :   0.9233 B(  2-C , 16-H ) :   0.9476 B(  2-C , 17-H ) :   0.9504
B(  2-C , 18-H ) :   0.9413 B(  3-C , 19-H ) :   0.9538 B(  3-C , 20-H ) :   0.9561
B(  3-C , 21-H ) :   0.9492 B(  4-P ,  5-C ) :   0.9236 B(  4-P ,  9-C ) :   0.9236
B(  5-C ,  6-C ) :   1.0203 B(  5-C ,  7-C ) :   1.0219 B(  5-C ,  8-C ) :   1.0364
B(  6-C , 22-H ) :   0.9538 B(  6-C , 23-H ) :   0.9560 B(  6-C , 24-H ) :   0.9490
B(  7-C , 25-H ) :   0.9527 B(  7-C , 26-H ) :   0.9468 B(  7-C , 27-H ) :   0.9400
B(  8-C , 28-H ) :   0.9504 B(  8-C , 29-H ) :   0.9477 B(  8-C , 30-H ) :   0.9414
B(  9-C , 10-C ) :   1.0216 B(  9-C , 11-C ) :   1.0205 B(  9-C , 12-C ) :   1.0365
B( 10-C , 31-H ) :   0.9400 B( 10-C , 32-H ) :   0.9528 B( 10-C , 33-H ) :   0.9472
B( 11-C , 34-H ) :   0.9539 B( 11-C , 35-H ) :   0.9560 B( 11-C , 36-H ) :   0.9492
B( 12-C , 37-H ) :   0.9475 B( 12-C , 38-H ) :   0.9412 B( 12-C , 39-H ) :   0.9505

Dispersion correction           -0.080943133
FINAL SINGLE POINT ENERGY      -814.516552146888

DIPOLE MOMENT
-------------

Method             : SCF
Type of density    : Electron Density
Multiplicity       :   1
Irrep              :   0
Energy             :  -814.4356090142330231 Eh
Relativity type    :
Basis              : AO
                                X                 Y                 Z
Electronic contribution:     -1.342873166       0.127253178      -4.667029481
Nuclear contribution   :      1.454909058      -0.136967605       5.062325614
                        -----------------------------------------
Total Dipole Moment    :      0.112035892      -0.009714426       0.395296134
                        -----------------------------------------
Magnitude (a.u.)       :      0.410981075
Magnitude (Debye)      :      1.044630876

Rotational constants in cm-1:             0.023764             0.023760             0.015843
Rotational constants in MHz :           712.431138           712.292817           474.954866

                             ****ORCA TERMINATED NORMALLY****
TOTAL RUN TIME: 0 days 0 hours 4 minutes 0 seconds 78 msec
