                         Program Version 6.0.0  -   RELEASE   -
|  1> ! RI BP86 def2-SVP D3BJ TIGHTSCF Opt
|  2> %pal
|  3> nprocs 6
|  4> end
|  5>
|  6> * xyz 0 1
|  7> C      3.258161   -0.824611   -0.250156
|  8> C      2.298735   -1.118709   -1.216720
|  9> C      0.973249   -0.721467   -1.030907
| 10> C      0.593865   -0.026073    0.125298
| 11> C      1.569406    0.262293    1.089365
| 12> C      2.893921   -0.134434    0.903444
| 13> P     -1.075116    0.501735    0.381931
| 14> O     -1.348500    1.231877    1.682025
| 15> C     -1.575813    1.548310   -1.000613
| 16> O     -2.836905    2.130247   -0.667319
| 17> C     -2.197474   -0.907328    0.255479
| 18> O     -2.042387   -1.697999    1.435294
| 19> H      4.289614   -1.136459   -0.393746
| 20> H      2.584474   -1.661775   -2.114393
| 21> H      0.241493   -0.966375   -1.796781
| 22> H      1.293171    0.799638    1.995810
| 23> H      3.640049    0.093172    1.660724
| 24> H     -1.683299    0.976072   -1.925382
| 25> H     -0.855131    2.355656   -1.156238
| 26> H     -2.748206    2.467222    0.249460
| 27> H     -1.981206   -1.526344   -0.618484
| 28> H     -3.237013   -0.572306    0.203705
| 29> H     -2.055089   -1.072343    2.188202
| 30> **                         ****END OF INPUT****
 Total Charge           Charge          ....    0
 Multiplicity           Mult            ....    1
 Number of Electrons    NEL             ....   98
Dispersion correction           -0.044916693
FINAL SINGLE POINT ENERGY      -878.074758317044
Dispersion correction             ... done (  0.1 sec)
Dispersion correction           -0.044609111
FINAL SINGLE POINT ENERGY      -878.081793768578
Dispersion correction             ... done (  0.1 sec)
Dispersion correction           -0.044378758
FINAL SINGLE POINT ENERGY      -878.083917419792
Dispersion correction             ... done (  0.1 sec)
FINAL SINGLE POINT ENERGY      -878.084463626004
FINAL SINGLE POINT ENERGY      -878.084750440327
FINAL SINGLE POINT ENERGY      -878.084874933166
FINAL SINGLE POINT ENERGY      -878.084922551865
FINAL SINGLE POINT ENERGY      -878.084936924457
Dispersion correction             ... done (  0.1 sec)
Dispersion correction           -0.044235957
FINAL SINGLE POINT ENERGY      -878.084939794564
Dispersion correction             ... done (  0.1 sec)
Dispersion correction           -0.044236709
FINAL SINGLE POINT ENERGY      -878.084941028131
Dispersion correction             ... done (  0.1 sec)
                    ***********************HURRAY********************

CARTESIAN COORDINATES (ANGSTROEM)
---------------------------------
  C      3.310398   -0.787394   -0.279345
  C      2.361527   -1.135077   -1.257556
  C      1.014093   -0.785554   -1.082321
  C      0.617769   -0.084720    0.075770
  C      1.568623    0.264598    1.055356
  C      2.914628   -0.089550    0.874679
  P     -1.102387    0.424205    0.349058
  O     -1.351854    1.088647    1.712325
  C     -1.599934    1.631834   -0.966918
  O     -2.791461    2.232272   -0.513029
  C     -2.249589   -1.036903    0.270883
  O     -2.349204   -1.530031    1.583306
  H      4.366356   -1.065575   -0.418103
  H      2.673873   -1.683828   -2.159042
  H      0.272856   -1.064525   -1.849004
  H      1.228596    0.806975    1.951214
  H      3.659315    0.178051    1.639804
  H     -1.783626    1.128781   -1.940779
  H     -0.751483    2.347592   -1.107871
  H     -2.655042    2.363785    0.455626
  H     -1.874143   -1.830219   -0.410038
  H     -3.214888   -0.645622   -0.140677
  H     -2.264423   -0.727744    2.156661

 Multiplicity           Mult            ....    1
 Number of Electrons    NEL             ....   98
 Basis Dimension        Dim             ....  227

ORBITAL ENERGIES
----------------

  NO   OCC          E(Eh)            E(eV)
   0   2.0000     -76.419227     -2079.4729
   1   2.0000     -18.790033      -511.3028
   2   2.0000     -18.777344      -510.9575
   3   2.0000     -18.742616      -510.0125
   4   2.0000      -9.977990      -271.5149
   5   2.0000      -9.971398      -271.3355
   6   2.0000      -9.948782      -270.7201
   7   2.0000      -9.943625      -270.5798
   8   2.0000      -9.942329      -270.5445
   9   2.0000      -9.942109      -270.5385
  10   2.0000      -9.941285      -270.5161
  11   2.0000      -9.939749      -270.4743
  12   2.0000      -6.382012      -173.6634
  13   2.0000      -4.603166      -125.2585
  14   2.0000      -4.602860      -125.2502
  15   2.0000      -4.602540      -125.2415
  16   2.0000      -0.940185       -25.5837
  17   2.0000      -0.928672       -25.2704
  18   2.0000      -0.864327       -23.5195
  19   2.0000      -0.792582       -21.5672
  20   2.0000      -0.701311       -19.0836
  21   2.0000      -0.690409       -18.7870
  22   2.0000      -0.651529       -17.7290
  23   2.0000      -0.613130       -16.6841
  24   2.0000      -0.568347       -15.4655
  25   2.0000      -0.561936       -15.2911
  26   2.0000      -0.516870       -14.0647
  27   2.0000      -0.483263       -13.1503
  28   2.0000      -0.471644       -12.8341
  29   2.0000      -0.443371       -12.0647
  30   2.0000      -0.427577       -11.6350
  31   2.0000      -0.419348       -11.4110
  32   2.0000      -0.414399       -11.2764
  33   2.0000      -0.405267       -11.0279
  34   2.0000      -0.401636       -10.9291
  35   2.0000      -0.395143       -10.7524
  36   2.0000      -0.386624       -10.5206
  37   2.0000      -0.353794        -9.6272
  38   2.0000      -0.345571        -9.4035
  39   2.0000      -0.327203        -8.9037
  40   2.0000      -0.317437        -8.6379
  41   2.0000      -0.298457        -8.1214
  42   2.0000      -0.290784        -7.9126
  43   2.0000      -0.256452        -6.9784
  44   2.0000      -0.254886        -6.9358
  45   2.0000      -0.250614        -6.8196
  46   2.0000      -0.248458        -6.7609
  47   2.0000      -0.234277        -6.3750
  48   2.0000      -0.215127        -5.8539
  49   0.0000      -0.077918        -2.1202
  50   0.0000      -0.064538        -1.7562
  51   0.0000      -0.004701        -0.1279
  52   0.0000       0.018030         0.4906
  53   0.0000       0.036446         0.9917

MULLIKEN ATOMIC CHARGES
-----------------------
   0 C :    0.010372
   1 C :    0.001075
   2 C :   -0.007783
   3 C :   -0.117574
   4 C :    0.006283
   5 C :    0.004858
   6 P :    0.404094
   7 O :   -0.499368
   8 C :    0.066448
   9 O :   -0.282379
  10 C :    0.083719
  11 O :   -0.287051
  12 H :    0.015761
  13 H :    0.013410
  14 H :    0.005865
  15 H :    0.027373
  16 H :    0.016783
  17 H :    0.048759
  18 H :    0.053044
  19 H :    0.176401
  20 H :    0.045072
  21 H :    0.041631
  22 H :    0.173206
Sum of atomic charges:   -0.0000000

LOEWDIN ATOMIC CHARGES
----------------------
   0 C :   -0.015581
   1 C :   -0.024639
   2 C :   -0.033279
   3 C :   -0.197199
   4 C :   -0.014175
   5 C :   -0.022106
   6 P :    0.832824
   7 O :   -0.505467
   8 C :   -0.080909
   9 O :   -0.130983
  10 C :   -0.078785
  11 O :   -0.134450
  12 H :    0.037644
  13 H :    0.037337
  14 H :    0.029751
  15 H :    0.040584
  16 H :    0.038520
  17 H :    0.025858
  18 H :    0.018757
  19 H :    0.071813
  20 H :    0.023102
  21 H :    0.014700
  22 H :    0.066683

  Mayer bond orders larger than 0.100000
B(  0-C ,  1-C ) :   1.3805 B(  0-C ,  5-C ) :   1.3839 B(  0-C , 12-H ) :   0.9761
B(  1-C ,  2-C ) :   1.4065 B(  1-C , 13-H ) :   0.9757 B(  2-C ,  3-C ) :   1.3405
B(  2-C , 14-H ) :   0.9734 B(  3-C ,  4-C ) :   1.3833 B(  3-C ,  6-P ) :   0.8494
B(  4-C ,  5-C ) :   1.3736 B(  4-C , 15-H ) :   0.9719 B(  5-C , 16-H ) :   0.9787
B(  6-P ,  7-O ) :   1.7355 B(  6-P ,  8-C ) :   0.9095 B(  6-P , 10-C ) :   0.9116
B(  7-O , 22-H ) :   0.1026 B(  8-C ,  9-O ) :   1.0542 B(  8-C , 17-H ) :   0.9237
B(  8-C , 18-H ) :   0.9151 B(  9-O , 19-H ) :   0.9354 B( 10-C , 11-O ) :   1.0761
B( 10-C , 20-H ) :   0.9282 B( 10-C , 21-H ) :   0.9057 B( 11-O , 22-H ) :   0.9282

Dispersion correction           -0.044235963
FINAL SINGLE POINT ENERGY      -878.084941265075

DIPOLE MOMENT
-------------

Method             : SCF
Type of density    : Electron Density
Multiplicity       :   1
Irrep              :   0
Energy             :  -878.0407053020405783 Eh
Relativity type    :
Basis              : AO
                                X                 Y                 Z
Electronic contribution:     -1.557762939       1.184901766       2.841519964
Nuclear contribution   :      2.756663625      -1.413292829      -3.901743035
                        -----------------------------------------
Total Dipole Moment    :      1.198900686      -0.228391063      -1.060223071
                        -----------------------------------------
Magnitude (a.u.)       :      1.616662702
Magnitude (Debye)      :      4.109230023

Rotational constants in cm-1:             0.045819             0.017155             0.016059
Rotational constants in MHz :          1373.607398           514.294867           481.436610

                             ****ORCA TERMINATED NORMALLY****
TOTAL RUN TIME: 0 days 0 hours 1 minutes 26 seconds 741 msec
