                         Program Version 6.0.0  -   RELEASE   -
|  1> ! RIJCOSX M062X def2-TZVP D3ZERO NormalSCF
|  2> %pal
|  3> nprocs 6
|  4> end
|  5>
|  6> * xyz 0 1
|  7>   C           4.46999528232071     -0.62691867688997     -0.08724473381465
|  8>   N           3.04770785762208     -0.86983558525513     -0.25707577017266
|  9>   C           2.59269940484902     -2.00228712849814      0.53558469261893
| 10>   C           2.66521978894638     -0.96547505401318     -1.66479078227558
| 11>   C           1.15297822006269     -0.82737056780694     -1.88089633057969
| 12>   C           0.61422910010749      0.48943432165055     -1.30597293136333
| 13>   P          -1.20492610752013      0.43307535035705     -1.09805720869813
| 14>   O          -1.99918271604090      0.10886022840089     -2.35333065025751
| 15>   C          -1.68332888605748      2.03463828291888     -0.34814110324935
| 16>   C          -0.92258377685128      2.70569143550757      0.63160095745040
| 17>   C          -1.37948704130732      3.92235034863525      1.16272923926276
| 18>   C          -2.59277237823126      4.47411288510762      0.71590014504136
| 19>   C          -3.34650667899492      3.81290276077686     -0.26906970563275
| 20>   C          -2.89296519278535      2.59688708116871     -0.80325340545150
| 21>   C          -1.45641801913470     -0.84355773122499      0.20232505579327
| 22>   C          -0.84798589698639     -0.79887718598930      1.47280162570905
| 23>   C          -1.06418466263205     -1.83916274441530      2.39012086606003
| 24>   C          -1.88659141612563     -2.92555197496600      2.04157620950750
| 25>   C          -2.49596666135523     -2.96983149265413      0.77615936776872
| 26>   C          -2.28267094087122     -1.93032449788416     -0.14360927369425
| 27>   H           5.11550317691710     -1.47191163340906     -0.45239792467042
| 28>   H           4.70375967170752     -0.46969632843801      0.98606495346209
| 29>   H           4.76942279137985      0.28752626906400     -0.63926770999856
| 30>   H           2.86733836480546     -1.85056254242189      1.59924110190162
| 31>   H           3.03813935441250     -2.97954832202492      0.20320397995668
| 32>   H           1.49012381754702     -2.09879273981719      0.49195042660814
| 33>   H           3.18374260953390     -0.14530168575236     -2.20706353121382
| 34>   H           3.02170811961105     -1.92602712231973     -2.12851772640141
| 35>   H           0.62754515429535     -1.68650110455905     -1.41048031863610
| 36>   H           0.91937836776097     -0.89658826692340     -2.96209012524419
| 37>   H           0.85041549190486      1.35429235187818     -1.96144456936253
| 38>   H           1.09459183608224      0.67736009693005     -0.32110532377821
| 39>   H           0.03627322617032      2.28997813981306      0.97775791396851
| 40>   H          -0.78323582450935      4.44526143719772      1.92632724556040
| 41>   H          -2.94849588634199      5.42837722865786      1.13414493835979
| 42>   H          -4.29187964040950      4.25029608172160     -0.62558261358235
| 43>   H          -3.45434144697021      2.06358806409766     -1.58642398934938
| 44>   H          -0.20258219987752      0.04711820698176      1.75439526053947
| 45>   H          -0.58856040631352     -1.80340136554914      3.38234012937872
| 46>   H          -2.05343824086886     -3.74085879238728      2.76237671233721
| 47>   H          -3.14071672140804     -3.81979333320573      0.50401083106972
| 48>   H          -2.74194889444370     -1.93357569446026     -1.14479692492802
| 49> **                         ****END OF INPUT****

CARTESIAN COORDINATES (ANGSTROEM)
---------------------------------
  C      4.469995   -0.626919   -0.087245
  N      3.047708   -0.869836   -0.257076
  C      2.592699   -2.002287    0.535585
  C      2.665220   -0.965475   -1.664791
  C      1.152978   -0.827371   -1.880896
  C      0.614229    0.489434   -1.305973
  P     -1.204926    0.433075   -1.098057
  O     -1.999183    0.108860   -2.353331
  C     -1.683329    2.034638   -0.348141
  C     -0.922584    2.705691    0.631601
  C     -1.379487    3.922350    1.162729
  C     -2.592772    4.474113    0.715900
  C     -3.346507    3.812903   -0.269070
  C     -2.892965    2.596887   -0.803253
  C     -1.456418   -0.843558    0.202325
  C     -0.847986   -0.798877    1.472802
  C     -1.064185   -1.839163    2.390121
  C     -1.886591   -2.925552    2.041576
  C     -2.495967   -2.969831    0.776159
  C     -2.282671   -1.930324   -0.143609
  H      5.115503   -1.471912   -0.452398
  H      4.703760   -0.469696    0.986065
  H      4.769423    0.287526   -0.639268
  H      2.867338   -1.850563    1.599241
  H      3.038139   -2.979548    0.203204
  H      1.490124   -2.098793    0.491950
  H      3.183743   -0.145302   -2.207064
  H      3.021708   -1.926027   -2.128518
  H      0.627545   -1.686501   -1.410480
  H      0.919378   -0.896588   -2.962090
  H      0.850415    1.354292   -1.961445
  H      1.094592    0.677360   -0.321105
  H      0.036273    2.289978    0.977758
  H     -0.783236    4.445261    1.926327
  H     -2.948496    5.428377    1.134145
  H     -4.291880    4.250296   -0.625583
  H     -3.454341    2.063588   -1.586424
  H     -0.202582    0.047118    1.754395
  H     -0.588560   -1.803401    3.382340
  H     -2.053438   -3.740859    2.762377
  H     -3.140717   -3.819793    0.504011
  H     -2.741949   -1.933576   -1.144797

 Total Charge           Charge          ....    0
 Multiplicity           Mult            ....    1
 Number of Electrons    NEL             ....  154
 Basis Dimension        Dim             ....  758

ORBITAL ENERGIES
----------------

  NO   OCC          E(Eh)            E(eV)
   0   2.0000     -78.090098     -2124.9396
   1   2.0000     -19.562519      -532.3232
   2   2.0000     -14.743752      -401.1979
   3   2.0000     -10.566799      -287.5372
   4   2.0000     -10.563481      -287.4469
   5   2.0000     -10.562450      -287.4189
   6   2.0000     -10.561239      -287.3859
   7   2.0000     -10.558807      -287.3197
   8   2.0000     -10.558563      -287.3131
   9   2.0000     -10.558205      -287.3034
  10   2.0000     -10.557810      -287.2926
  11   2.0000     -10.557659      -287.2885
  12   2.0000     -10.557488      -287.2839
  13   2.0000     -10.556351      -287.2529
  14   2.0000     -10.555248      -287.2229
  15   2.0000     -10.555162      -287.2205
  16   2.0000     -10.554432      -287.2007
  17   2.0000     -10.553984      -287.1885
  18   2.0000     -10.545066      -286.9458
  19   2.0000     -10.543565      -286.9050
  20   2.0000      -6.896631      -187.6669
  21   2.0000      -5.013800      -136.4324
  22   2.0000      -5.013560      -136.4259
  23   2.0000      -5.012016      -136.3839
  24   2.0000      -1.058221       -28.7957
  25   2.0000      -1.033492       -28.1227
  26   2.0000      -0.963635       -26.2218
  27   2.0000      -0.960853       -26.1461
  28   2.0000      -0.889215       -24.1968
  29   2.0000      -0.857925       -23.3453
  30   2.0000      -0.847686       -23.0667
  31   2.0000      -0.846808       -23.0428
  32   2.0000      -0.844129       -22.9699
  33   2.0000      -0.797041       -21.6886
  34   2.0000      -0.794343       -21.6152
  35   2.0000      -0.728011       -19.8102
  36   2.0000      -0.701983       -19.1019
  37   2.0000      -0.692981       -18.8570
  38   2.0000      -0.691416       -18.8144
  39   2.0000      -0.683559       -18.6006
  40   2.0000      -0.649624       -17.6772
  41   2.0000      -0.628387       -17.0993
  42   2.0000      -0.597003       -16.2453
  43   2.0000      -0.581368       -15.8198
  44   2.0000      -0.559956       -15.2372
  45   2.0000      -0.546723       -14.8771
  46   2.0000      -0.533337       -14.5128
  47   2.0000      -0.529062       -14.3965
  48   2.0000      -0.526508       -14.3270
  49   2.0000      -0.521712       -14.1965
  50   2.0000      -0.520568       -14.1654
  51   2.0000      -0.503322       -13.6961
  52   2.0000      -0.493997       -13.4423
  53   2.0000      -0.493126       -13.4187
  54   2.0000      -0.490840       -13.3564
  55   2.0000      -0.484251       -13.1771
  56   2.0000      -0.469164       -12.7666
  57   2.0000      -0.456539       -12.4231
  58   2.0000      -0.447747       -12.1838
  59   2.0000      -0.443502       -12.0683
  60   2.0000      -0.438844       -11.9415
  61   2.0000      -0.434281       -11.8174
  62   2.0000      -0.427519       -11.6334
  63   2.0000      -0.422975       -11.5097
  64   2.0000      -0.410783       -11.1780
  65   2.0000      -0.407569       -11.0905
  66   2.0000      -0.405348       -11.0301
  67   2.0000      -0.400411       -10.8957
  68   2.0000      -0.393519       -10.7082
  69   2.0000      -0.393003       -10.6941
  70   2.0000      -0.334624        -9.1056
  71   2.0000      -0.331129        -9.0105
  72   2.0000      -0.319009        -8.6807
  73   2.0000      -0.316438        -8.6107
  74   2.0000      -0.313712        -8.5365
  75   2.0000      -0.309071        -8.4102
  76   2.0000      -0.282392        -7.6843
  77   0.0000      -0.013639        -0.3711
  78   0.0000       0.003561         0.0969
  79   0.0000       0.009875         0.2687
  80   0.0000       0.014116         0.3841
  81   0.0000       0.053055         1.4437

MULLIKEN ATOMIC CHARGES
-----------------------
   0 C :   -0.353458
   1 N :   -0.201384
   2 C :   -0.360456
   3 C :   -0.206970
   4 C :   -0.348366
   5 C :   -0.399822
   6 P :    0.651928
   7 O :   -0.609591
   8 C :   -0.016053
   9 C :   -0.190478
  10 C :   -0.166656
  11 C :   -0.137371
  12 C :   -0.133472
  13 C :   -0.163262
  14 C :   -0.078556
  15 C :   -0.219250
  16 C :   -0.158005
  17 C :   -0.130440
  18 C :   -0.139335
  19 C :   -0.127689
  20 H :    0.132514
  21 H :    0.140334
  22 H :    0.141832
  23 H :    0.144200
  24 H :    0.138704
  25 H :    0.156777
  26 H :    0.152338
  27 H :    0.148138
  28 H :    0.187236
  29 H :    0.175650
  30 H :    0.178829
  31 H :    0.187527
  32 H :    0.169148
  33 H :    0.145629
  34 H :    0.147981
  35 H :    0.149165
  36 H :    0.190783
  37 H :    0.156992
  38 H :    0.147775
  39 H :    0.148351
  40 H :    0.150201
  41 H :    0.198581
Sum of atomic charges:   -0.0000000

LOEWDIN ATOMIC CHARGES
----------------------
   0 C :   -0.340225
   1 N :    0.027651
   2 C :   -0.335280
   3 C :   -0.297530
   4 C :   -0.285183
   5 C :   -0.360359
   6 P :    0.649694
   7 O :   -0.316910
   8 C :   -0.230682
   9 C :   -0.138196
  10 C :   -0.141620
  11 C :   -0.132961
  12 C :   -0.136037
  13 C :   -0.115105
  14 C :   -0.234508
  15 C :   -0.138063
  16 C :   -0.143763
  17 C :   -0.134727
  18 C :   -0.137329
  19 C :   -0.120442
  20 H :    0.106392
  21 H :    0.118475
  22 H :    0.118645
  23 H :    0.119907
  24 H :    0.108338
  25 H :    0.121655
  26 H :    0.139593
  27 H :    0.127642
  28 H :    0.144786
  29 H :    0.150611
  30 H :    0.147985
  31 H :    0.146041
  32 H :    0.146448
  33 H :    0.148328
  34 H :    0.148465
  35 H :    0.149420
  36 H :    0.161512
  37 H :    0.148671
  38 H :    0.148611
  39 H :    0.148322
  40 H :    0.149236
  41 H :    0.162493

  Mayer bond orders larger than 0.100000
B(  0-C ,  1-N ) :   0.9763 B(  0-C , 20-H ) :   0.9607 B(  0-C , 21-H ) :   0.9721
B(  0-C , 22-H ) :   0.9722 B(  1-N ,  2-C ) :   0.9371 B(  1-N ,  3-C ) :   0.9282
B(  2-C , 23-H ) :   0.9726 B(  2-C , 24-H ) :   0.9589 B(  2-C , 25-H ) :   0.9659
B(  3-C ,  4-C ) :   0.9120 B(  3-C , 26-H ) :   0.9713 B(  3-C , 27-H ) :   0.9779
B(  4-C ,  5-C ) :   0.8791 B(  4-C , 28-H ) :   0.9866 B(  4-C , 29-H ) :   0.9757
B(  5-C ,  6-P ) :   0.9409 B(  5-C , 30-H ) :   0.9359 B(  5-C , 31-H ) :   0.9383
B(  6-P ,  7-O ) :   1.9350 B(  6-P ,  8-C ) :   0.8877 B(  6-P , 14-C ) :   0.9053
B(  8-C ,  9-C ) :   1.3586 B(  8-C , 13-C ) :   1.4282 B(  9-C , 10-C ) :   1.5110
B(  9-C , 32-H ) :   0.9038 B( 10-C , 11-C ) :   1.4459 B( 10-C , 33-H ) :   0.9449
B( 11-C , 12-C ) :   1.4392 B( 11-C , 34-H ) :   0.9456 B( 12-C , 13-C ) :   1.4331
B( 12-C , 35-H ) :   0.9476 B( 13-C , 36-H ) :   0.9063 B( 14-C , 15-C ) :   1.3200
B( 14-C , 19-C ) :   1.3967 B( 15-C , 16-C ) :   1.4933 B( 15-C , 37-H ) :   0.9351
B( 16-C , 17-C ) :   1.4312 B( 16-C , 38-H ) :   0.9505 B( 17-C , 18-C ) :   1.4391
B( 17-C , 39-H ) :   0.9466 B( 18-C , 19-C ) :   1.4255 B( 18-C , 40-H ) :   0.9477
B( 19-C , 41-H ) :   0.9100

Dispersion correction           -0.003009716
FINAL SINGLE POINT ENERGY     -1132.352453892055

DIPOLE MOMENT
-------------

Method             : SCF
Type of density    : Electron Density
Multiplicity       :   1
Irrep              :   0
Energy             : -1132.3494441760315112 Eh
Relativity type    :
Basis              : AO
                                X                 Y                 Z
Electronic contribution:    -21.346152920       7.717757656      -2.202419718
Nuclear contribution   :     22.280697711      -7.609845066       3.537305180
                        -----------------------------------------
Total Dipole Moment    :      0.934544791       0.107912590       1.334885462
                        -----------------------------------------
Magnitude (a.u.)       :      1.633076327
Magnitude (Debye)      :      4.150950142

Rotational constants in cm-1:             0.012425             0.007434             0.006069
Rotational constants in MHz :           372.502689           222.875880           181.938187

                             ****ORCA TERMINATED NORMALLY****
TOTAL RUN TIME: 0 days 0 hours 2 minutes 16 seconds 787 msec
