                         Program Version 6.0.0  -   RELEASE   -
|  1> ! RIJCOSX M062X def2-TZVP D3ZERO NormalSCF
|  2> %pal
|  3> nprocs 6
|  4> end
|  5>
|  6> * xyz 0 1
|  7>   C          -2.32107327647580      3.07267084228819      1.71121053346276
|  8>   C          -1.60650465162768      1.89450037713294      1.97589975578436
|  9>   C          -0.71689901291083      1.38901691212698      1.00728363965896
| 10>   C          -0.52345756409740      2.06785498596944     -0.21059361421112
| 11>   C          -1.25167273945931      3.24317318637410     -0.45728193088074
| 12>   C          -2.15374078775744      3.75165411374967      0.49342024198770
| 13>   Cl         -1.02266600328220      4.08987891692778     -1.97125149630428
| 14>   P           0.13821123054658     -0.17962237256494      1.41962316848578
| 15>   O           0.30719373555935     -0.40039079122425      2.91113099577088
| 16>   C           1.72718824524160     -0.11767964095721      0.50683369836836
| 17>   C           1.83723041373398     -0.45039831268102     -0.85657601229800
| 18>   C           3.08756515624411     -0.33646925484696     -1.48583195068707
| 19>   C           4.22243448278580      0.08959564875835     -0.77396799571111
| 20>   C           4.09954355013591      0.39952976652554      0.59019222143890
| 21>   C           2.85849962530406      0.29688079078849      1.23693237067062
| 22>   Cl          3.23229687797351     -0.74118854851705     -3.18189556054408
| 23>   C          -0.83941462202387     -1.49359292866287      0.59576073939914
| 24>   C          -1.55721606563112     -1.27722329102284     -0.59567514240346
| 25>   C          -2.24411472217485     -2.35324947573269     -1.18093211577911
| 26>   C          -2.23384214668997     -3.62867054227581     -0.58971288849540
| 27>   C          -1.52857264316875     -3.82308552815086      0.60900487253106
| 28>   C          -0.83170329910996     -2.76252268541858      1.20774273497029
| 29>   Cl         -3.13264271240243     -2.09549694366283     -2.66598336462260
| 30>   H          -3.01730453586649      3.47507350441168      2.46271702471331
| 31>   H          -1.71459926502252      1.36073762425084      2.93204374262562
| 32>   H           0.19546686443535      1.70776762897746     -0.96067724075485
| 33>   H          -2.70854230122544      4.67528795866249      0.27679544817114
| 34>   H           0.97169903734572     -0.81330912174394     -1.42948806301861
| 35>   H           5.19003719066316      0.16651976598787     -1.28938468828625
| 36>   H           4.98886812168357      0.72160270834638      1.15304293008622
| 37>   H           2.75027738951144      0.52055090668165      2.30888017582888
| 38>   H          -1.60337887120335     -0.28333508071926     -1.06380358152711
| 39>   H          -2.78283007909357     -4.45297811151101     -1.06611872406331
| 40>   H          -1.52896279587760     -4.81760376847772      1.08058473971582
| 41>   H          -0.28737282606358     -2.89547823978999      2.15473033591734
| 42> **                         ****END OF INPUT****

CARTESIAN COORDINATES (ANGSTROEM)
---------------------------------
  C     -2.321073    3.072671    1.711211
  C     -1.606505    1.894500    1.975900
  C     -0.716899    1.389017    1.007284
  C     -0.523458    2.067855   -0.210594
  C     -1.251673    3.243173   -0.457282
  C     -2.153741    3.751654    0.493420
  Cl    -1.022666    4.089879   -1.971251
  P      0.138211   -0.179622    1.419623
  O      0.307194   -0.400391    2.911131
  C      1.727188   -0.117680    0.506834
  C      1.837230   -0.450398   -0.856576
  C      3.087565   -0.336469   -1.485832
  C      4.222434    0.089596   -0.773968
  C      4.099544    0.399530    0.590192
  C      2.858500    0.296881    1.236932
  Cl     3.232297   -0.741189   -3.181896
  C     -0.839415   -1.493593    0.595761
  C     -1.557216   -1.277223   -0.595675
  C     -2.244115   -2.353249   -1.180932
  C     -2.233842   -3.628671   -0.589713
  C     -1.528573   -3.823086    0.609005
  C     -0.831703   -2.762523    1.207743
  Cl    -3.132643   -2.095497   -2.665983
  H     -3.017305    3.475074    2.462717
  H     -1.714599    1.360738    2.932044
  H      0.195467    1.707768   -0.960677
  H     -2.708542    4.675288    0.276795
  H      0.971699   -0.813309   -1.429488
  H      5.190037    0.166520   -1.289385
  H      4.988868    0.721603    1.153043
  H      2.750277    0.520551    2.308880
  H     -1.603379   -0.283335   -1.063804
  H     -2.782830   -4.452978   -1.066119
  H     -1.528963   -4.817604    1.080585
  H     -0.287373   -2.895478    2.154730

 Total Charge           Charge          ....    0
 Multiplicity           Mult            ....    1
 Number of Electrons    NEL             ....  194
 Basis Dimension        Dim             ....  809

ORBITAL ENERGIES
----------------

  NO   OCC          E(Eh)            E(eV)
   0   2.0000    -102.657515     -2793.4530
   1   2.0000    -102.657494     -2793.4524
   2   2.0000    -102.657484     -2793.4522
   3   2.0000     -78.114393     -2125.6007
   4   2.0000     -19.582837      -532.8761
   5   2.0000     -10.626884      -289.1722
   6   2.0000     -10.626855      -289.1714
   7   2.0000     -10.626806      -289.1701
   8   2.0000     -10.582062      -287.9525
   9   2.0000     -10.582018      -287.9513
  10   2.0000     -10.582015      -287.9513
  11   2.0000     -10.578474      -287.8549
  12   2.0000     -10.578446      -287.8541
  13   2.0000     -10.578428      -287.8537
  14   2.0000     -10.578388      -287.8526
  15   2.0000     -10.578373      -287.8522
  16   2.0000     -10.578335      -287.8511
  17   2.0000     -10.574480      -287.7462
  18   2.0000     -10.574458      -287.7456
  19   2.0000     -10.574453      -287.7455
  20   2.0000     -10.572547      -287.6936
  21   2.0000     -10.572543      -287.6935
  22   2.0000     -10.572525      -287.6930
  23   2.0000      -9.819473      -267.2014
  24   2.0000      -9.819453      -267.2009
  25   2.0000      -9.819442      -267.2006
  26   2.0000      -7.541424      -205.2126
  27   2.0000      -7.541404      -205.2120
  28   2.0000      -7.541392      -205.2117
  29   2.0000      -7.536485      -205.0782
  30   2.0000      -7.536463      -205.0776
  31   2.0000      -7.536454      -205.0773
  32   2.0000      -7.536395      -205.0757
  33   2.0000      -7.536375      -205.0752
  34   2.0000      -7.536363      -205.0749
  35   2.0000      -6.920543      -188.3176
  36   2.0000      -5.037691      -137.0825
  37   2.0000      -5.037684      -137.0823
  38   2.0000      -5.035932      -137.0347
  39   2.0000      -1.078930       -29.3592
  40   2.0000      -1.007887       -27.4260
  41   2.0000      -1.005937       -27.3729
  42   2.0000      -1.005925       -27.3726
  43   2.0000      -0.951950       -25.9039
  44   2.0000      -0.947027       -25.7699
  45   2.0000      -0.947021       -25.7697
  46   2.0000      -0.887150       -24.1406
  47   2.0000      -0.866079       -23.5672
  48   2.0000      -0.866008       -23.5653
  49   2.0000      -0.843630       -22.9563
  50   2.0000      -0.841300       -22.8929
  51   2.0000      -0.841291       -22.8927
  52   2.0000      -0.757278       -20.6066
  53   2.0000      -0.715814       -19.4783
  54   2.0000      -0.715749       -19.4765
  55   2.0000      -0.709307       -19.3012
  56   2.0000      -0.689929       -18.7739
  57   2.0000      -0.689835       -18.7714
  58   2.0000      -0.641424       -17.4540
  59   2.0000      -0.609513       -16.5857
  60   2.0000      -0.609433       -16.5835
  61   2.0000      -0.594818       -16.1858
  62   2.0000      -0.558015       -15.1844
  63   2.0000      -0.556734       -15.1495
  64   2.0000      -0.556689       -15.1483
  65   2.0000      -0.541879       -14.7453
  66   2.0000      -0.541782       -14.7426
  67   2.0000      -0.532607       -14.4930
  68   2.0000      -0.511893       -13.9293
  69   2.0000      -0.511705       -13.9242
  70   2.0000      -0.509646       -13.8682
  71   2.0000      -0.506672       -13.7873
  72   2.0000      -0.506621       -13.7859
  73   2.0000      -0.481337       -13.0978
  74   2.0000      -0.481032       -13.0896
  75   2.0000      -0.480981       -13.0881
  76   2.0000      -0.470766       -12.8102
  77   2.0000      -0.446548       -12.1512
  78   2.0000      -0.437213       -11.8972
  79   2.0000      -0.437172       -11.8961
  80   2.0000      -0.431442       -11.7401
  81   2.0000      -0.431309       -11.7365
  82   2.0000      -0.429096       -11.6763
  83   2.0000      -0.412021       -11.2117
  84   2.0000      -0.411946       -11.2096
  85   2.0000      -0.410997       -11.1838
  86   2.0000      -0.390838       -10.6352
  87   2.0000      -0.390830       -10.6350
  88   2.0000      -0.389086       -10.5876
  89   2.0000      -0.354218        -9.6388
  90   2.0000      -0.354154        -9.6370
  91   2.0000      -0.337396        -9.1810
  92   2.0000      -0.337256        -9.1772
  93   2.0000      -0.331546        -9.0218
  94   2.0000      -0.314924        -8.5695
  95   2.0000      -0.314831        -8.5670
  96   2.0000      -0.314325        -8.5532
  97   0.0000      -0.029210        -0.7948
  98   0.0000      -0.028952        -0.7878
  99   0.0000      -0.015980        -0.4348
 100   0.0000      -0.014053        -0.3824
 101   0.0000      -0.004110        -0.1118

MULLIKEN ATOMIC CHARGES
-----------------------
   0 C :   -0.122196
   1 C :   -0.160864
   2 C :   -0.051156
   3 C :   -0.244262
   4 C :    0.077432
   5 C :   -0.166585
   6 Cl:   -0.069361
   7 P :    0.631088
   8 O :   -0.588662
   9 C :   -0.049137
  10 C :   -0.244742
  11 C :    0.076301
  12 C :   -0.167189
  13 C :   -0.122891
  14 C :   -0.161202
  15 Cl:   -0.069213
  16 C :   -0.049526
  17 C :   -0.248144
  18 C :    0.076892
  19 C :   -0.166827
  20 C :   -0.122757
  21 C :   -0.159879
  22 Cl:   -0.069188
  23 H :    0.156419
  24 H :    0.190235
  25 H :    0.211879
  26 H :    0.165104
  27 H :    0.211706
  28 H :    0.165246
  29 H :    0.156643
  30 H :    0.190087
  31 H :    0.212644
  32 H :    0.165220
  33 H :    0.156847
  34 H :    0.190040
Sum of atomic charges:   -0.0000000

LOEWDIN ATOMIC CHARGES
----------------------
   0 C :   -0.124855
   1 C :   -0.113409
   2 C :   -0.224767
   3 C :   -0.141678
   4 C :   -0.415109
   5 C :   -0.129662
   6 Cl:    0.387512
   7 P :    0.689388
   8 O :   -0.299343
   9 C :   -0.224813
  10 C :   -0.141797
  11 C :   -0.415209
  12 C :   -0.129698
  13 C :   -0.124847
  14 C :   -0.113345
  15 Cl:    0.387572
  16 C :   -0.224863
  17 C :   -0.142020
  18 C :   -0.415216
  19 C :   -0.129668
  20 C :   -0.124890
  21 C :   -0.113279
  22 Cl:    0.387619
  23 H :    0.153876
  24 H :    0.162652
  25 H :    0.160655
  26 H :    0.154972
  27 H :    0.160651
  28 H :    0.154982
  29 H :    0.153869
  30 H :    0.162672
  31 H :    0.160508
  32 H :    0.155016
  33 H :    0.153854
  34 H :    0.162669

  Mayer bond orders larger than 0.100000
B(  0-C ,  1-C ) :   1.4360 B(  0-C ,  5-C ) :   1.4205 B(  0-C , 23-H ) :   0.9443
B(  1-C ,  2-C ) :   1.4410 B(  1-C , 24-H ) :   0.9063 B(  2-C ,  3-C ) :   1.3103
B(  2-C ,  7-P ) :   0.9138 B(  3-C ,  4-C ) :   1.4308 B(  3-C , 25-H ) :   0.8968
B(  4-C ,  5-C ) :   1.4036 B(  4-C ,  6-Cl) :   1.0807 B(  5-C , 26-H ) :   0.9301
B(  7-P ,  8-O ) :   1.9533 B(  7-P ,  9-C ) :   0.9119 B(  7-P , 16-C ) :   0.9144
B(  9-C , 10-C ) :   1.3085 B(  9-C , 14-C ) :   1.4416 B( 10-C , 11-C ) :   1.4319
B( 10-C , 27-H ) :   0.8968 B( 11-C , 12-C ) :   1.4031 B( 11-C , 15-Cl) :   1.0818
B( 12-C , 13-C ) :   1.4205 B( 12-C , 28-H ) :   0.9300 B( 13-C , 14-C ) :   1.4364
B( 13-C , 29-H ) :   0.9439 B( 14-C , 30-H ) :   0.9068 B( 16-C , 17-C ) :   1.3066
B( 16-C , 21-C ) :   1.4413 B( 17-C , 18-C ) :   1.4326 B( 17-C , 31-H ) :   0.8968
B( 18-C , 19-C ) :   1.4036 B( 18-C , 22-Cl) :   1.0805 B( 19-C , 20-C ) :   1.4196
B( 19-C , 32-H ) :   0.9301 B( 20-C , 21-C ) :   1.4349 B( 20-C , 33-H ) :   0.9439
B( 21-C , 34-H ) :   0.9064

Dispersion correction           -0.002918260
FINAL SINGLE POINT ENERGY     -2490.323870441923

DIPOLE MOMENT
-------------

Method             : SCF
Type of density    : Electron Density
Multiplicity       :   1
Irrep              :   0
Energy             : -2490.3209521820535883 Eh
Relativity type    :
Basis              : AO
                                X                 Y                 Z
Electronic contribution:     -1.925547540       2.635358863     -17.618041881
Nuclear contribution   :      1.924458154      -2.645462624      17.664081308
                        -----------------------------------------
Total Dipole Moment    :     -0.001089387      -0.010103762       0.046039427
                        -----------------------------------------
Magnitude (a.u.)       :      0.047147657
Magnitude (Debye)      :      0.119839821

Rotational constants in cm-1:             0.005502             0.005481             0.004333
Rotational constants in MHz :           164.936183           164.305288           129.901905

                             ****ORCA TERMINATED NORMALLY****
TOTAL RUN TIME: 0 days 0 hours 2 minutes 32 seconds 167 msec
