                         Program Version 6.0.0  -   RELEASE   -
|  1> ! RIJCOSX M062X def2-TZVP D3ZERO NormalSCF
|  2> %pal
|  3> nprocs 6
|  4> end
|  5>
|  6> * xyz 0 1
|  7>   C           4.10438218921466     -1.19159469275325      0.62677978689626
|  8>   C           2.87175292133357     -1.78499334166750      1.32620185011199
|  9>   C           1.61220896755916     -0.94373335402803      1.05574687244272
| 10>   C           1.37337170923555     -0.77975159735683     -0.45454257913019
| 11>   C           2.60809742228100     -0.18560777532490     -1.16166060420984
| 12>   C           3.86473848976763     -1.02259072126982     -0.88161385669397
| 13>   P          -0.12445039709969      0.19721647753023     -0.94274372722642
| 14>   O          -0.30196043815379      0.23992452310973     -2.45544874860000
| 15>   C          -1.58080604750525     -0.51743687396451     -0.05235942027587
| 16>   C          -1.76048378674763     -1.99962423960539     -0.43825137900680
| 17>   C          -3.04877250674710     -2.58967819990962      0.15649737921119
| 18>   C          -4.28139251805492     -1.75860086432441     -0.22795048370552
| 19>   C          -4.10790887520652     -0.29005749854797      0.18582741894127
| 20>   C          -2.82929256671671      0.31476652319945     -0.41194081746802
| 21>   C           0.10883185695115      1.87822196724969     -0.24008594020211
| 22>   C           0.04408134508225      2.18112938017460      1.13637126434461
| 23>   C           0.24748815737046      3.49876875381207      1.57718995315894
| 24>   C           0.51477229645440      4.51884827806674      0.64748332293159
| 25>   C           0.56825255326912      4.22274563310428     -0.72537250132003
| 26>   C           0.36140277114056      2.90729934797709     -1.16950074510048
| 27>   H           4.99629802052731     -1.82719558996587      0.81087798362876
| 28>   H           4.33083654907842     -0.19670468636919      1.07354485360918
| 29>   H           2.70223733077652     -2.82116759347374      0.95522588725849
| 30>   H           3.04588659411686     -1.86791959932532      2.42003770042266
| 31>   H           0.73041159986359     -1.40603673210670      1.54834594502120
| 32>   H           1.74519828194775      0.06160312305938      1.51246546581285
| 33>   H           1.17154725861707     -1.78177175519725     -0.89986902241331
| 34>   H           2.76585587870388      0.85331345018961     -0.79310787985303
| 35>   H           2.40480057746171     -0.11007361666829     -2.24886096739544
| 36>   H           4.74824230991862     -0.55491901300751     -1.36544458452557
| 37>   H           3.74719848648968     -2.02639689110665     -1.34943611232312
| 38>   H          -1.39112187705568     -0.44274696674936      1.04296502438403
| 39>   H          -1.79006328232321     -2.06570544090305     -1.54835327021241
| 40>   H          -0.88282892375799     -2.59478563118484     -0.10859564725602
| 41>   H          -3.16868948816376     -3.64320423236693     -0.17399104040306
| 42>   H          -2.95833650622918     -2.61774718134016      1.26648987165492
| 43>   H          -4.42617873628778     -1.81139553157010     -1.33064270520574
| 44>   H          -5.19708862986164     -2.18788524244775      0.23098618796726
| 45>   H          -4.06010287775689     -0.22564107958415      1.29701382599001
| 46>   H          -4.98953053526248      0.30981572472418     -0.12431946496654
| 47>   H          -2.69709063709865      1.36316903495507     -0.07162205683291
| 48>   H          -2.90634697858163      0.35259885855648     -1.52056216910815
| 49>   H          -0.17761987897157      1.39312155225298      1.87247346325594
| 50>   H           0.19350360500347      3.73184739048235      2.65184936156321
| 51>   H           0.67451423204796      5.55097195344737      0.99582492364152
| 52>   H           0.76673478841471      5.02347286131115     -1.45453909374801
| 53>   H           0.37741729495501      2.64613410891665     -2.23938552506604
| 54> **                         ****END OF INPUT****

CARTESIAN COORDINATES (ANGSTROEM)
---------------------------------
  C      4.104382   -1.191595    0.626780
  C      2.871753   -1.784993    1.326202
  C      1.612209   -0.943733    1.055747
  C      1.373372   -0.779752   -0.454543
  C      2.608097   -0.185608   -1.161661
  C      3.864738   -1.022591   -0.881614
  P     -0.124450    0.197216   -0.942744
  O     -0.301960    0.239925   -2.455449
  C     -1.580806   -0.517437   -0.052359
  C     -1.760484   -1.999624   -0.438251
  C     -3.048773   -2.589678    0.156497
  C     -4.281393   -1.758601   -0.227950
  C     -4.107909   -0.290057    0.185827
  C     -2.829293    0.314767   -0.411941
  C      0.108832    1.878222   -0.240086
  C      0.044081    2.181129    1.136371
  C      0.247488    3.498769    1.577190
  C      0.514772    4.518848    0.647483
  C      0.568253    4.222746   -0.725373
  C      0.361403    2.907299   -1.169501
  H      4.996298   -1.827196    0.810878
  H      4.330837   -0.196705    1.073545
  H      2.702237   -2.821168    0.955226
  H      3.045887   -1.867920    2.420038
  H      0.730412   -1.406037    1.548346
  H      1.745198    0.061603    1.512465
  H      1.171547   -1.781772   -0.899869
  H      2.765856    0.853313   -0.793108
  H      2.404801   -0.110074   -2.248861
  H      4.748242   -0.554919   -1.365445
  H      3.747198   -2.026397   -1.349436
  H     -1.391122   -0.442747    1.042965
  H     -1.790063   -2.065705   -1.548353
  H     -0.882829   -2.594786   -0.108596
  H     -3.168689   -3.643204   -0.173991
  H     -2.958337   -2.617747    1.266490
  H     -4.426179   -1.811396   -1.330643
  H     -5.197089   -2.187885    0.230986
  H     -4.060103   -0.225641    1.297014
  H     -4.989531    0.309816   -0.124319
  H     -2.697091    1.363169   -0.071622
  H     -2.906347    0.352599   -1.520562
  H     -0.177620    1.393122    1.872473
  H      0.193504    3.731847    2.651849
  H      0.674514    5.550972    0.995825
  H      0.766735    5.023473   -1.454539
  H      0.377417    2.646134   -2.239386

 Total Charge           Charge          ....    0
 Multiplicity           Mult            ....    1
 Number of Electrons    NEL             ....  158
 Basis Dimension        Dim             ....  788

ORBITAL ENERGIES
----------------

  NO   OCC          E(Eh)            E(eV)
   0   2.0000     -78.080914     -2124.6897
   1   2.0000     -19.556532      -532.1603
   2   2.0000     -10.563099      -287.4365
   3   2.0000     -10.558836      -287.3205
   4   2.0000     -10.557896      -287.2949
   5   2.0000     -10.555767      -287.2370
   6   2.0000     -10.555059      -287.2177
   7   2.0000     -10.553687      -287.1804
   8   2.0000     -10.550369      -287.0901
   9   2.0000     -10.548741      -287.0458
  10   2.0000     -10.546555      -286.9864
  11   2.0000     -10.541443      -286.8473
  12   2.0000     -10.539899      -286.8052
  13   2.0000     -10.536791      -286.7207
  14   2.0000     -10.535928      -286.6972
  15   2.0000     -10.535571      -286.6875
  16   2.0000     -10.535519      -286.6860
  17   2.0000     -10.534479      -286.6578
  18   2.0000     -10.534421      -286.6562
  19   2.0000     -10.533077      -286.6196
  20   2.0000      -6.888181      -187.4369
  21   2.0000      -5.005317      -136.2016
  22   2.0000      -5.004813      -136.1879
  23   2.0000      -5.003445      -136.1506
  24   2.0000      -1.051841       -28.6221
  25   2.0000      -0.962159       -26.1817
  26   2.0000      -0.937632       -25.5143
  27   2.0000      -0.932639       -25.3784
  28   2.0000      -0.861814       -23.4512
  29   2.0000      -0.847284       -23.0558
  30   2.0000      -0.841701       -22.9039
  31   2.0000      -0.838161       -22.8075
  32   2.0000      -0.836233       -22.7551
  33   2.0000      -0.834261       -22.7014
  34   2.0000      -0.727777       -19.8038
  35   2.0000      -0.700062       -19.0497
  36   2.0000      -0.697728       -18.9861
  37   2.0000      -0.690940       -18.8014
  38   2.0000      -0.685447       -18.6520
  39   2.0000      -0.683190       -18.5905
  40   2.0000      -0.636462       -17.3190
  41   2.0000      -0.634039       -17.2531
  42   2.0000      -0.616423       -16.7737
  43   2.0000      -0.582858       -15.8604
  44   2.0000      -0.551457       -15.0059
  45   2.0000      -0.548031       -14.9127
  46   2.0000      -0.525603       -14.3024
  47   2.0000      -0.523664       -14.2496
  48   2.0000      -0.517736       -14.0883
  49   2.0000      -0.509725       -13.8703
  50   2.0000      -0.507504       -13.8099
  51   2.0000      -0.505561       -13.7570
  52   2.0000      -0.502795       -13.6818
  53   2.0000      -0.492293       -13.3960
  54   2.0000      -0.491360       -13.3706
  55   2.0000      -0.470185       -12.7944
  56   2.0000      -0.455455       -12.3935
  57   2.0000      -0.452416       -12.3109
  58   2.0000      -0.445084       -12.1113
  59   2.0000      -0.444436       -12.0937
  60   2.0000      -0.438125       -11.9220
  61   2.0000      -0.429839       -11.6965
  62   2.0000      -0.424845       -11.5606
  63   2.0000      -0.417937       -11.3726
  64   2.0000      -0.410492       -11.1700
  65   2.0000      -0.404702       -11.0125
  66   2.0000      -0.402793       -10.9606
  67   2.0000      -0.400128       -10.8880
  68   2.0000      -0.393481       -10.7072
  69   2.0000      -0.378026       -10.2866
  70   2.0000      -0.375594       -10.2204
  71   2.0000      -0.371862       -10.1189
  72   2.0000      -0.365227        -9.9383
  73   2.0000      -0.360342        -9.8054
  74   2.0000      -0.357648        -9.7321
  75   2.0000      -0.322436        -8.7739
  76   2.0000      -0.318604        -8.6697
  77   2.0000      -0.314547        -8.5593
  78   2.0000      -0.306596        -8.3429
  79   0.0000      -0.003920        -0.1067
  80   0.0000       0.009157         0.2492
  81   0.0000       0.046926         1.2769
  82   0.0000       0.067760         1.8439
  83   0.0000       0.070247         1.9115

MULLIKEN ATOMIC CHARGES
-----------------------
   0 C :   -0.273189
   1 C :   -0.277965
   2 C :   -0.370194
   3 C :   -0.176823
   4 C :   -0.372396
   5 C :   -0.276712
   6 P :    0.658576
   7 O :   -0.600716
   8 C :   -0.216018
   9 C :   -0.368801
  10 C :   -0.273640
  11 C :   -0.274842
  12 C :   -0.273445
  13 C :   -0.350945
  14 C :   -0.127201
  15 C :   -0.208509
  16 C :   -0.151964
  17 C :   -0.134450
  18 C :   -0.138910
  19 C :   -0.131980
  20 H :    0.145069
  21 H :    0.143294
  22 H :    0.148412
  23 H :    0.143542
  24 H :    0.164257
  25 H :    0.170853
  26 H :    0.185941
  27 H :    0.174087
  28 H :    0.187353
  29 H :    0.145550
  30 H :    0.148302
  31 H :    0.173070
  32 H :    0.198220
  33 H :    0.153749
  34 H :    0.145675
  35 H :    0.141213
  36 H :    0.149257
  37 H :    0.143571
  38 H :    0.140065
  39 H :    0.145904
  40 H :    0.168909
  41 H :    0.195880
  42 H :    0.185653
  43 H :    0.146782
  44 H :    0.148279
  45 H :    0.149710
  46 H :    0.197529
Sum of atomic charges:   -0.0000000

LOEWDIN ATOMIC CHARGES
----------------------
   0 C :   -0.271576
   1 C :   -0.267039
   2 C :   -0.268061
   3 C :   -0.339146
   4 C :   -0.259536
   5 C :   -0.268618
   6 P :    0.665662
   7 O :   -0.322897
   8 C :   -0.340848
   9 C :   -0.263665
  10 C :   -0.269163
  11 C :   -0.271179
  12 C :   -0.269489
  13 C :   -0.259888
  14 C :   -0.234976
  15 C :   -0.145166
  16 C :   -0.143323
  17 C :   -0.134265
  18 C :   -0.137025
  19 C :   -0.120037
  20 H :    0.137833
  21 H :    0.140608
  22 H :    0.140853
  23 H :    0.138224
  24 H :    0.138790
  25 H :    0.147434
  26 H :    0.163363
  27 H :    0.146873
  28 H :    0.150973
  29 H :    0.139402
  30 H :    0.141057
  31 H :    0.151490
  32 H :    0.153540
  33 H :    0.138394
  34 H :    0.139137
  35 H :    0.139067
  36 H :    0.142646
  37 H :    0.137334
  38 H :    0.138731
  39 H :    0.139575
  40 H :    0.144961
  41 H :    0.153834
  42 H :    0.147846
  43 H :    0.148144
  44 H :    0.148253
  45 H :    0.149211
  46 H :    0.162663

  Mayer bond orders larger than 0.100000
B(  0-C ,  1-C ) :   0.9218 B(  0-C ,  5-C ) :   0.9154 B(  0-C , 20-H ) :   0.9818
B(  0-C , 21-H ) :   0.9785 B(  1-C ,  2-C ) :   0.9326 B(  1-C , 22-H ) :   0.9846
B(  1-C , 23-H ) :   0.9826 B(  2-C ,  3-C ) :   0.8410 B(  2-C , 24-H ) :   0.9811
B(  2-C , 25-H ) :   0.9630 B(  3-C ,  4-C ) :   0.8984 B(  3-C ,  6-P ) :   0.8826
B(  3-C , 26-H ) :   0.9352 B(  4-C ,  5-C ) :   0.9135 B(  4-C , 27-H ) :   0.9749
B(  4-C , 28-H ) :   0.9741 B(  5-C , 29-H ) :   0.9870 B(  5-C , 30-H ) :   0.9817
B(  6-P ,  7-O ) :   1.9444 B(  6-P ,  8-C ) :   0.8829 B(  6-P , 14-C ) :   0.8962
B(  8-C ,  9-C ) :   0.8779 B(  8-C , 13-C ) :   0.8928 B(  8-C , 31-H ) :   0.9340
B(  9-C , 10-C ) :   0.9189 B(  9-C , 32-H ) :   0.9717 B(  9-C , 33-H ) :   0.9787
B( 10-C , 11-C ) :   0.9232 B( 10-C , 34-H ) :   0.9853 B( 10-C , 35-H ) :   0.9817
B( 11-C , 12-C ) :   0.9204 B( 11-C , 36-H ) :   0.9777 B( 11-C , 37-H ) :   0.9827
B( 12-C , 13-C ) :   0.9101 B( 12-C , 38-H ) :   0.9810 B( 12-C , 39-H ) :   0.9858
B( 13-C , 40-H ) :   0.9780 B( 13-C , 41-H ) :   0.9728 B( 14-C , 15-C ) :   1.3320
B( 14-C , 19-C ) :   1.4085 B( 15-C , 16-C ) :   1.4936 B( 15-C , 42-H ) :   0.9223
B( 16-C , 17-C ) :   1.4426 B( 16-C , 43-H ) :   0.9445 B( 17-C , 18-C ) :   1.4369
B( 17-C , 44-H ) :   0.9467 B( 18-C , 19-C ) :   1.4336 B( 18-C , 45-H ) :   0.9474
B( 19-C , 46-H ) :   0.9081

Dispersion correction           -0.003441121
FINAL SINGLE POINT ENERGY     -1118.747970808900

DIPOLE MOMENT
-------------

Method             : SCF
Type of density    : Electron Density
Multiplicity       :   1
Irrep              :   0
Energy             : -1118.7445296875378062 Eh
Relativity type    :
Basis              : AO
                                X                 Y                 Z
Electronic contribution:      0.270506748      13.441509237      -6.152361066
Nuclear contribution   :     -0.048718295     -13.425612698       7.703247202
                        -----------------------------------------
Total Dipole Moment    :      0.221788454       0.015896539       1.550886137
                        -----------------------------------------
Magnitude (a.u.)       :      1.566745234
Magnitude (Debye)      :      3.982349901

Rotational constants in cm-1:             0.011535             0.008743             0.006093
Rotational constants in MHz :           345.819194           262.097521           182.671054

                             ****ORCA TERMINATED NORMALLY****
TOTAL RUN TIME: 0 days 0 hours 2 minutes 54 seconds 20 msec
