                         Program Version 6.0.0  -   RELEASE   -
|  1> ! RI BP86 def2-SVP D3BJ TIGHTSCF Opt
|  2> %pal
|  3> nprocs 6
|  4> end
|  5>
|  6> * xyz 0 1
|  7> C     -0.586997    3.982932   -0.560630
|  8> C     -0.244866    2.793783    0.325001
|  9> C     -0.639828    1.476080   -0.340673
| 10> P     -0.296546    0.010697    0.741283
| 11> C     -0.849364   -1.355828   -0.382471
| 12> C     -2.371564   -1.477163   -0.442822
| 13> C     -2.797152   -2.639466   -1.327919
| 14> C      1.540212   -0.122092    0.530319
| 15> C      2.129635   -1.299061    1.306711
| 16> C      3.643346   -1.352815    1.160898
| 17> H     -0.297299    4.917020   -0.069175
| 18> H     -0.058204    3.924165   -1.517332
| 19> H     -1.661954    4.025209   -0.763175
| 20> H      0.829948    2.813638    0.538422
| 21> H     -0.762703    2.906045    1.285568
| 22> H     -1.712691    1.498699   -0.560521
| 23> H     -0.115716    1.363717   -1.296435
| 24> H     -0.442832   -1.198147   -1.387790
| 25> H     -0.434086   -2.298345   -0.009528
| 26> H     -2.818824   -0.556448   -0.834499
| 27> H     -2.782295   -1.628174    0.563132
| 28> H     -3.888846   -2.711198   -1.360030
| 29> H     -2.435204   -2.505140   -2.352275
| 30> H     -2.405820   -3.587731   -0.945821
| 31> H      1.787054   -0.209884   -0.533712
| 32> H      1.996976    0.805050    0.893159
| 33> H      1.878319   -1.217750    2.371454
| 34> H      1.709585   -2.247116    0.951863
| 35> H      4.107499   -0.438911    1.545196
| 36> H      4.048086   -2.200842    1.722155
| 37> H      3.932131   -1.470923    0.111609
| 38> **                         ****END OF INPUT****
 Total Charge           Charge          ....    0
 Multiplicity           Mult            ....    1
 Number of Electrons    NEL             ....   90
Dispersion correction           -0.046100450
FINAL SINGLE POINT ENERGY      -696.664282936214
Dispersion correction             ... done (  0.1 sec)
Dispersion correction           -0.045601188
FINAL SINGLE POINT ENERGY      -696.669373586827
Dispersion correction             ... done (  0.1 sec)
Dispersion correction           -0.045453153
FINAL SINGLE POINT ENERGY      -696.669782850629
Dispersion correction             ... done (  0.1 sec)
FINAL SINGLE POINT ENERGY      -696.669911740526
Dispersion correction             ... done (  0.1 sec)
Dispersion correction           -0.045373979
FINAL SINGLE POINT ENERGY      -696.669933696817
Dispersion correction             ... done (  0.1 sec)
Dispersion correction           -0.045378657
FINAL SINGLE POINT ENERGY      -696.669938375122
Dispersion correction             ... done (  0.1 sec)
                    ***********************HURRAY********************

CARTESIAN COORDINATES (ANGSTROEM)
---------------------------------
  C     -0.585770    4.043328   -0.568389
  C     -0.267651    2.838058    0.322777
  C     -0.622876    1.496034   -0.332340
  P     -0.310126    0.012986    0.776882
  C     -0.872157   -1.347773   -0.388923
  C     -2.397220   -1.514016   -0.445338
  C     -2.841787   -2.671584   -1.345666
  C      1.546255   -0.143268    0.540121
  C      2.168412   -1.306595    1.324889
  C      3.691153   -1.386392    1.173348
  H     -0.322979    5.000221   -0.072517
  H     -0.025382    3.996869   -1.526002
  H     -1.666427    4.081601   -0.821077
  H      0.812993    2.850282    0.587223
  H     -0.812310    2.925456    1.288456
  H     -1.706221    1.481064   -0.584066
  H     -0.074316    1.369714   -1.294070
  H     -0.456602   -1.167799   -1.407142
  H     -0.409874   -2.290700   -0.022220
  H     -2.863750   -0.569334   -0.802899
  H     -2.783806   -1.665855    0.586382
  H     -3.946404   -2.771031   -1.369196
  H     -2.495539   -2.526228   -2.390665
  H     -2.425103   -3.638198   -0.991883
  H      1.782650   -0.228678   -0.545630
  H      1.991081    0.816481    0.884352
  H      1.898473   -1.205234    2.399037
  H      1.714716   -2.266543    0.992364
  H      4.180200   -0.457225    1.534758
  H      4.115988   -2.234492    1.748556
  H      3.984379   -1.521148    0.110840

 Multiplicity           Mult            ....    1
 Number of Electrons    NEL             ....   90
 Basis Dimension        Dim             ....  249

ORBITAL ENERGIES
----------------

  NO   OCC          E(Eh)            E(eV)
   0   2.0000     -76.324289     -2076.8895
   1   2.0000      -9.914805      -269.7956
   2   2.0000      -9.914775      -269.7947
   3   2.0000      -9.914730      -269.7935
   4   2.0000      -9.911941      -269.7176
   5   2.0000      -9.911909      -269.7168
   6   2.0000      -9.911851      -269.7152
   7   2.0000      -9.907285      -269.5909
   8   2.0000      -9.907255      -269.5901
   9   2.0000      -9.907253      -269.5901
  10   2.0000      -6.294332      -171.2775
  11   2.0000      -4.515727      -122.8792
  12   2.0000      -4.515725      -122.8791
  13   2.0000      -4.512092      -122.7803
  14   2.0000      -0.720025       -19.5929
  15   2.0000      -0.701460       -19.0877
  16   2.0000      -0.701427       -19.0868
  17   2.0000      -0.642860       -17.4931
  18   2.0000      -0.601607       -16.3706
  19   2.0000      -0.601543       -16.3688
  20   2.0000      -0.534327       -14.5398
  21   2.0000      -0.518642       -14.1130
  22   2.0000      -0.518509       -14.1093
  23   2.0000      -0.470057       -12.7909
  24   2.0000      -0.413331       -11.2473
  25   2.0000      -0.413244       -11.2449
  26   2.0000      -0.412312       -11.2196
  27   2.0000      -0.379979       -10.3398
  28   2.0000      -0.379948       -10.3389
  29   2.0000      -0.369727       -10.0608
  30   2.0000      -0.357377        -9.7247
  31   2.0000      -0.357338        -9.7237
  32   2.0000      -0.345504        -9.4016
  33   2.0000      -0.338302        -9.2057
  34   2.0000      -0.338145        -9.2014
  35   2.0000      -0.328507        -8.9391
  36   2.0000      -0.302169        -8.2224
  37   2.0000      -0.299969        -8.1626
  38   2.0000      -0.299940        -8.1618
  39   2.0000      -0.294379        -8.0105
  40   2.0000      -0.285420        -7.7667
  41   2.0000      -0.285419        -7.7666
  42   2.0000      -0.261153        -7.1063
  43   2.0000      -0.261109        -7.1051
  44   2.0000      -0.191926        -5.2226
  45   0.0000       0.021743         0.5917
  46   0.0000       0.021910         0.5962
  47   0.0000       0.035260         0.9595
  48   0.0000       0.053555         1.4573
  49   0.0000       0.053729         1.4620

MULLIKEN ATOMIC CHARGES
-----------------------
   0 C :   -0.052193
   1 C :   -0.029469
   2 C :   -0.179875
   3 P :    0.129886
   4 C :   -0.179836
   5 C :   -0.030022
   6 C :   -0.052059
   7 C :   -0.179737
   8 C :   -0.030280
   9 C :   -0.052024
  10 H :    0.031542
  11 H :    0.026751
  12 H :    0.027948
  13 H :    0.024663
  14 H :    0.030794
  15 H :    0.045069
  16 H :    0.031335
  17 H :    0.031486
  18 H :    0.045256
  19 H :    0.024772
  20 H :    0.030843
  21 H :    0.031512
  22 H :    0.026777
  23 H :    0.027977
  24 H :    0.031437
  25 H :    0.045466
  26 H :    0.030854
  27 H :    0.024888
  28 H :    0.028005
  29 H :    0.031505
  30 H :    0.026729
Sum of atomic charges:   -0.0000000

LOEWDIN ATOMIC CHARGES
----------------------
   0 C :   -0.074315
   1 C :   -0.061381
   2 C :   -0.186116
   3 P :    0.436040
   4 C :   -0.186191
   5 C :   -0.061407
   6 C :   -0.074294
   7 C :   -0.186247
   8 C :   -0.061409
   9 C :   -0.074255
  10 H :    0.029279
  11 H :    0.026447
  12 H :    0.026719
  13 H :    0.022990
  14 H :    0.027480
  15 H :    0.025321
  16 H :    0.018218
  17 H :    0.018312
  18 H :    0.025330
  19 H :    0.022974
  20 H :    0.027458
  21 H :    0.029280
  22 H :    0.026444
  23 H :    0.026713
  24 H :    0.018251
  25 H :    0.025425
  26 H :    0.027515
  27 H :    0.022969
  28 H :    0.026726
  29 H :    0.029280
  30 H :    0.026445

  Mayer bond orders larger than 0.100000
B(  0-C ,  1-C ) :   1.1122 B(  0-C , 10-H ) :   0.9628 B(  0-C , 11-H ) :   0.9670
B(  0-C , 12-H ) :   0.9677 B(  1-C ,  2-C ) :   1.0667 B(  1-C , 13-H ) :   0.9378
B(  1-C , 14-H ) :   0.9383 B(  2-C ,  3-P ) :   0.9671 B(  2-C , 15-H ) :   0.9344
B(  2-C , 16-H ) :   0.9224 B(  3-P ,  4-C ) :   0.9669 B(  3-P ,  7-C ) :   0.9669
B(  4-C ,  5-C ) :   1.0668 B(  4-C , 17-H ) :   0.9224 B(  4-C , 18-H ) :   0.9343
B(  5-C ,  6-C ) :   1.1122 B(  5-C , 19-H ) :   0.9377 B(  5-C , 20-H ) :   0.9383
B(  6-C , 21-H ) :   0.9628 B(  6-C , 22-H ) :   0.9670 B(  6-C , 23-H ) :   0.9677
B(  7-C ,  8-C ) :   1.0667 B(  7-C , 24-H ) :   0.9224 B(  7-C , 25-H ) :   0.9345
B(  8-C ,  9-C ) :   1.1123 B(  8-C , 26-H ) :   0.9382 B(  8-C , 27-H ) :   0.9377
B(  9-C , 28-H ) :   0.9678 B(  9-C , 29-H ) :   0.9628 B(  9-C , 30-H ) :   0.9669

Dispersion correction           -0.045380655
FINAL SINGLE POINT ENERGY      -696.669939310278

DIPOLE MOMENT
-------------

Method             : SCF
Type of density    : Electron Density
Multiplicity       :   1
Irrep              :   0
Energy             :  -696.6245586548147912 Eh
Relativity type    :
Basis              : AO
                                X                 Y                 Z
Electronic contribution:     -1.912110329       0.080589927       4.917529185
Nuclear contribution   :      2.063832464      -0.086834278      -5.303950316
                        -----------------------------------------
Total Dipole Moment    :      0.151722135      -0.006244352      -0.386421130
                        -----------------------------------------
Magnitude (a.u.)       :      0.415186570
Magnitude (Debye)      :      1.055320393

Rotational constants in cm-1:             0.025095             0.025024             0.013390
Rotational constants in MHz :           752.319936           750.188267           401.434213

                             ****ORCA TERMINATED NORMALLY****
TOTAL RUN TIME: 0 days 0 hours 0 minutes 50 seconds 232 msec
