                         Program Version 6.0.0  -   RELEASE   -
|  1> ! RIJCOSX M062X def2-TZVP D3ZERO NormalSCF
|  2> %pal
|  3> nprocs 6
|  4> end
|  5>
|  6> * xyz 0 1
|  7>   C          -3.93987012348824      0.53981403753302      1.56370795150049
|  8>   C          -3.89676858365677      1.06327467944549      0.26043925252243
|  9>   C          -2.80716887138943      0.77382850721366     -0.57532792229110
| 10>   C          -1.73649204779049     -0.02064292416196     -0.10925571820005
| 11>   C          -1.78633261249721     -0.54190733590623      1.19967042339056
| 12>   C          -2.88594689479086     -0.26616326577198      2.02714372985063
| 13>   P          -0.36835530904987     -0.32075788147704     -1.32755656766777
| 14>   C           0.64346070705203     -1.63144232522991     -0.51668217478539
| 15>   C           2.02262669104159     -1.49686945290298     -0.25631132623326
| 16>   C           2.75864065700032     -2.57475114653586      0.26163143479584
| 17>   C           2.12876640779866     -3.80097423954240      0.52835262693705
| 18>   C           0.75663958067533     -3.94856906017581      0.26046383993987
| 19>   C           0.02198463415205     -2.87757437348783     -0.26861643703278
| 20>   C           0.66139488782521      1.19699343825235     -1.02179116553099
| 21>   C           1.02554226563319      1.99083808094315     -2.12743097569074
| 22>   C           1.75606034638494      3.18377331178537     -1.97932869354407
| 23>   C           2.13802387678838      3.60167546258325     -0.69331696556190
| 24>   C           1.79561241126629      2.82801466493714      0.43117293467481
| 25>   C           1.06661839506397      1.64099141564424      0.25403351592549
| 26>   F           0.77932338912366      0.92649814920310      1.34930896471202
| 27>   F           2.17206743445567      3.22794545328509      1.65109318551463
| 28>   F           2.82947491784622      4.73211849171032     -0.53700264802967
| 29>   F           2.08693199005732      3.92055670823345     -3.04540854028424
| 30>   F           0.67936187250337      1.62925657355144     -3.37002730091599
| 31>   H          -4.79819460416038      0.75651383929894      2.21799192923606
| 32>   H          -4.72193275877792      1.68945948032833     -0.11234277271685
| 33>   H          -2.78411198045655      1.16638716173746     -1.60523378188343
| 34>   H          -0.95755258615775     -1.15871570523296      1.57542205520434
| 35>   H          -2.91444463538088     -0.67764188802578      3.04801287867807
| 36>   H           2.53062449067019     -0.54230671092788     -0.46015406865021
| 37>   H           3.83387073504081     -2.45101163665686      0.46320625797921
| 38>   H           2.70627442806046     -4.64250757788503      0.94012131578843
| 39>   H           0.25428206160553     -4.90775183422773      0.45943552437320
| 40>   H          -1.05041017244886     -3.00835409753756     -0.48542076200471
| 41> **                         ****END OF INPUT****

CARTESIAN COORDINATES (ANGSTROEM)
---------------------------------
  C     -3.939870    0.539814    1.563708
  C     -3.896769    1.063275    0.260439
  C     -2.807169    0.773829   -0.575328
  C     -1.736492   -0.020643   -0.109256
  C     -1.786333   -0.541907    1.199670
  C     -2.885947   -0.266163    2.027144
  P     -0.368355   -0.320758   -1.327557
  C      0.643461   -1.631442   -0.516682
  C      2.022627   -1.496869   -0.256311
  C      2.758641   -2.574751    0.261631
  C      2.128766   -3.800974    0.528353
  C      0.756640   -3.948569    0.260464
  C      0.021985   -2.877574   -0.268616
  C      0.661395    1.196993   -1.021791
  C      1.025542    1.990838   -2.127431
  C      1.756060    3.183773   -1.979329
  C      2.138024    3.601675   -0.693317
  C      1.795612    2.828015    0.431173
  C      1.066618    1.640991    0.254034
  F      0.779323    0.926498    1.349309
  F      2.172067    3.227945    1.651093
  F      2.829475    4.732118   -0.537003
  F      2.086932    3.920557   -3.045409
  F      0.679362    1.629257   -3.370027
  H     -4.798195    0.756514    2.217992
  H     -4.721933    1.689459   -0.112343
  H     -2.784112    1.166387   -1.605234
  H     -0.957553   -1.158716    1.575422
  H     -2.914445   -0.677642    3.048013
  H      2.530624   -0.542307   -0.460154
  H      3.833871   -2.451012    0.463206
  H      2.706274   -4.642508    0.940121
  H      0.254282   -4.907752    0.459436
  H     -1.050410   -3.008354   -0.485421

 Total Charge           Charge          ....    0
 Multiplicity           Mult            ....    1
 Number of Electrons    NEL             ....  178
 Basis Dimension        Dim             ....  810

ORBITAL ENERGIES
----------------

  NO   OCC          E(Eh)            E(eV)
   0   2.0000     -78.055450     -2123.9968
   1   2.0000     -25.298478      -688.4066
   2   2.0000     -25.292292      -688.2382
   3   2.0000     -25.292202      -688.2358
   4   2.0000     -25.289014      -688.1490
   5   2.0000     -25.287808      -688.1163
   6   2.0000     -10.680625      -290.6346
   7   2.0000     -10.675022      -290.4821
   8   2.0000     -10.674790      -290.4758
   9   2.0000     -10.671489      -290.3860
  10   2.0000     -10.671319      -290.3814
  11   2.0000     -10.594656      -288.2952
  12   2.0000     -10.569111      -287.6001
  13   2.0000     -10.566273      -287.5229
  14   2.0000     -10.562108      -287.4096
  15   2.0000     -10.561938      -287.4049
  16   2.0000     -10.561031      -287.3803
  17   2.0000     -10.559554      -287.3401
  18   2.0000     -10.559139      -287.3288
  19   2.0000     -10.558596      -287.3140
  20   2.0000     -10.558241      -287.3044
  21   2.0000     -10.558157      -287.3020
  22   2.0000     -10.557324      -287.2794
  23   2.0000     -10.556516      -287.2574
  24   2.0000      -6.870911      -186.9670
  25   2.0000      -4.985469      -135.6615
  26   2.0000      -4.985132      -135.6523
  27   2.0000      -4.984856      -135.6448
  28   2.0000      -1.420923       -38.6653
  29   2.0000      -1.411893       -38.4196
  30   2.0000      -1.407272       -38.2938
  31   2.0000      -1.398177       -38.0463
  32   2.0000      -1.396059       -37.9887
  33   2.0000      -1.010172       -27.4882
  34   2.0000      -0.968647       -26.3582
  35   2.0000      -0.962214       -26.1832
  36   2.0000      -0.900539       -24.5049
  37   2.0000      -0.887995       -24.1636
  38   2.0000      -0.864282       -23.5183
  39   2.0000      -0.850734       -23.1496
  40   2.0000      -0.849206       -23.1081
  41   2.0000      -0.844039       -22.9675
  42   2.0000      -0.781855       -21.2754
  43   2.0000      -0.767659       -20.8891
  44   2.0000      -0.732442       -19.9308
  45   2.0000      -0.699932       -19.0461
  46   2.0000      -0.696423       -18.9506
  47   2.0000      -0.694858       -18.9080
  48   2.0000      -0.690900       -18.8003
  49   2.0000      -0.684909       -18.6373
  50   2.0000      -0.678034       -18.4503
  51   2.0000      -0.645020       -17.5519
  52   2.0000      -0.640148       -17.4193
  53   2.0000      -0.637305       -17.3419
  54   2.0000      -0.632839       -17.2204
  55   2.0000      -0.616742       -16.7824
  56   2.0000      -0.608381       -16.5549
  57   2.0000      -0.602288       -16.3891
  58   2.0000      -0.593866       -16.1599
  59   2.0000      -0.584825       -15.9139
  60   2.0000      -0.581164       -15.8143
  61   2.0000      -0.578547       -15.7431
  62   2.0000      -0.558972       -15.2104
  63   2.0000      -0.556610       -15.1461
  64   2.0000      -0.538220       -14.6457
  65   2.0000      -0.532598       -14.4927
  66   2.0000      -0.524642       -14.2762
  67   2.0000      -0.522971       -14.2308
  68   2.0000      -0.514885       -14.0107
  69   2.0000      -0.511941       -13.9306
  70   2.0000      -0.496436       -13.5087
  71   2.0000      -0.494041       -13.4435
  72   2.0000      -0.481969       -13.1150
  73   2.0000      -0.476333       -12.9617
  74   2.0000      -0.464640       -12.6435
  75   2.0000      -0.448649       -12.2083
  76   2.0000      -0.444826       -12.1043
  77   2.0000      -0.441833       -12.0229
  78   2.0000      -0.418213       -11.3801
  79   2.0000      -0.411693       -11.2027
  80   2.0000      -0.408247       -11.1090
  81   2.0000      -0.390640       -10.6298
  82   2.0000      -0.348406        -9.4806
  83   2.0000      -0.337728        -9.1901
  84   2.0000      -0.323392        -8.7999
  85   2.0000      -0.321033        -8.7357
  86   2.0000      -0.316644        -8.6163
  87   2.0000      -0.314944        -8.5701
  88   2.0000      -0.281162        -7.6508
  89   0.0000      -0.028249        -0.7687
  90   0.0000      -0.012133        -0.3302
  91   0.0000      -0.001061        -0.0289
  92   0.0000       0.001832         0.0498
  93   0.0000       0.004134         0.1125

MULLIKEN ATOMIC CHARGES
-----------------------
   0 C :   -0.137211
   1 C :   -0.151495
   2 C :   -0.160401
   3 C :   -0.069947
   4 C :   -0.149734
   5 C :   -0.152408
   6 P :    0.195315
   7 C :    0.011155
   8 C :   -0.139384
   9 C :   -0.160851
  10 C :   -0.147147
  11 C :   -0.130217
  12 C :   -0.248707
  13 C :   -0.245308
  14 C :    0.275322
  15 C :    0.145651
  16 C :    0.171455
  17 C :    0.168694
  18 C :    0.157268
  19 F :   -0.170604
  20 F :   -0.166043
  21 F :   -0.160914
  22 F :   -0.165962
  23 F :   -0.167508
  24 H :    0.148521
  25 H :    0.148218
  26 H :    0.157843
  27 H :    0.199391
  28 H :    0.148037
  29 H :    0.168752
  30 H :    0.147499
  31 H :    0.148999
  32 H :    0.149158
  33 H :    0.182563
Sum of atomic charges:   -0.0000000

LOEWDIN ATOMIC CHARGES
----------------------
   0 C :   -0.135892
   1 C :   -0.141645
   2 C :   -0.141629
   3 C :   -0.276687
   4 C :   -0.134002
   5 C :   -0.138914
   6 P :    0.730558
   7 C :   -0.279155
   8 C :   -0.137914
   9 C :   -0.138332
  10 C :   -0.138946
  11 C :   -0.141013
  12 C :   -0.142154
  13 C :   -0.237708
  14 C :   -0.242240
  15 C :   -0.225276
  16 C :   -0.212706
  17 C :   -0.224305
  18 C :   -0.240225
  19 F :    0.229011
  20 F :    0.213384
  21 F :    0.222763
  22 F :    0.213361
  23 F :    0.211286
  24 H :    0.148297
  25 H :    0.148864
  26 H :    0.150511
  27 H :    0.156957
  28 H :    0.149162
  29 H :    0.153142
  30 H :    0.149356
  31 H :    0.148355
  32 H :    0.149396
  33 H :    0.154339

  Mayer bond orders larger than 0.100000
B(  0-C ,  1-C ) :   1.4380 B(  0-C ,  5-C ) :   1.4372 B(  0-C , 24-H ) :   0.9455
B(  1-C ,  2-C ) :   1.4659 B(  1-C , 25-H ) :   0.9461 B(  2-C ,  3-C ) :   1.4169
B(  2-C , 26-H ) :   0.9273 B(  3-C ,  4-C ) :   1.3278 B(  3-C ,  6-P ) :   0.9196
B(  4-C ,  5-C ) :   1.4756 B(  4-C , 27-H ) :   0.9208 B(  5-C , 28-H ) :   0.9422
B(  6-P ,  7-C ) :   0.9416 B(  6-P , 13-C ) :   0.9794 B(  7-C ,  8-C ) :   1.3591
B(  7-C , 12-C ) :   1.3375 B(  8-C ,  9-C ) :   1.4742 B(  8-C , 29-H ) :   0.9208
B(  9-C , 10-C ) :   1.4471 B(  9-C , 30-H ) :   0.9432 B( 10-C , 11-C ) :   1.4332
B( 10-C , 31-H ) :   0.9446 B( 11-C , 12-C ) :   1.4728 B( 11-C , 32-H ) :   0.9461
B( 12-C , 33-H ) :   0.9340 B( 13-C , 14-C ) :   1.3039 B( 13-C , 18-C ) :   1.2736
B( 14-C , 15-C ) :   1.4195 B( 14-C , 23-F ) :   1.0398 B( 15-C , 16-C ) :   1.3945
B( 15-C , 22-F ) :   1.0481 B( 16-C , 17-C ) :   1.3854 B( 16-C , 21-F ) :   1.0395
B( 17-C , 18-C ) :   1.4261 B( 17-C , 20-F ) :   1.0644 B( 18-C , 19-F ) :   1.0181

Dispersion correction           -0.002241837
FINAL SINGLE POINT ENERGY     -1532.472297403980

DIPOLE MOMENT
-------------

Method             : SCF
Type of density    : Electron Density
Multiplicity       :   1
Irrep              :   0
Energy             : -1532.4700555673991857 Eh
Relativity type    :
Basis              : AO
                                X                 Y                 Z
Electronic contribution:     16.141698954      28.009292415     -11.232749739
Nuclear contribution   :    -16.532067434     -28.710085160      11.820791155
                        -----------------------------------------
Total Dipole Moment    :     -0.390368480      -0.700792745       0.588041416
                        -----------------------------------------
Magnitude (a.u.)       :      0.994630951
Magnitude (Debye)      :      2.528150962

Rotational constants in cm-1:             0.009177             0.005809             0.004800
Rotational constants in MHz :           275.116451           174.152765           143.889194

                             ****ORCA TERMINATED NORMALLY****
TOTAL RUN TIME: 0 days 0 hours 2 minutes 24 seconds 921 msec
