                         Program Version 6.0.0  -   RELEASE   -
|  1> ! RI BP86 def2-SVP D3BJ TIGHTSCF Opt
|  2> %pal
|  3> nprocs 6
|  4> end
|  5>
|  6> * xyz 0 1
|  7> C     -2.822842   -2.871262    0.265035
|  8> C     -1.811093   -2.559138   -0.554492
|  9> C     -0.440372   -2.157229   -0.095075
| 10> P      0.083319   -0.599740   -0.897053
| 11> O      0.094344   -0.827125   -2.397932
| 12> C     -1.010732    0.730828   -0.406850
| 13> C     -1.663813    0.760617    0.832762
| 14> C     -2.498235    1.828286    1.171321
| 15> C     -2.688946    2.878332    0.275697
| 16> C     -2.047619    2.862240   -0.960166
| 17> C     -1.214487    1.795505   -1.298205
| 18> C      1.715060   -0.243172   -0.242102
| 19> C      1.921441    0.027483    1.117793
| 20> C      3.203843    0.294294    1.601238
| 21> C      4.292785    0.292518    0.731842
| 22> C      4.101575    0.025604   -0.621786
| 23> C      2.820256   -0.240377   -1.105439
| 24> H     -2.716600   -2.859235    1.344926
| 25> H     -3.791687   -3.152917   -0.138216
| 26> H     -1.970515   -2.592177   -1.632437
| 27> H     -0.392729   -2.051005    0.993274
| 28> H      0.273848   -2.936673   -0.382256
| 29> H     -1.535475   -0.046197    1.548142
| 30> H     -3.002991    1.840416    2.134099
| 31> H     -3.339908    3.707913    0.539057
| 32> H     -2.196892    3.677584   -1.663324
| 33> H     -0.720282    1.786196   -2.268946
| 34> H      1.086389    0.038923    1.812654
| 35> H      3.354283    0.507385    2.656681
| 36> H      5.290676    0.502216    1.108344
| 37> H      4.948856    0.026116   -1.302856
| 38> H      2.678544   -0.446207   -2.165730
| 39> **                         ****END OF INPUT****
 Total Charge           Charge          ....    0
 Multiplicity           Mult            ....    1
 Number of Electrons    NEL             ....  128
Dispersion correction           -0.071718479
FINAL SINGLE POINT ENERGY      -996.722390455658
Dispersion correction             ... done (  0.1 sec)
Dispersion correction           -0.071540402
FINAL SINGLE POINT ENERGY      -996.728664301463
Dispersion correction             ... done (  0.1 sec)
Dispersion correction           -0.071471129
FINAL SINGLE POINT ENERGY      -996.730054528673
Dispersion correction             ... done (  0.1 sec)
FINAL SINGLE POINT ENERGY      -996.730413042539
FINAL SINGLE POINT ENERGY      -996.730526635824
FINAL SINGLE POINT ENERGY      -996.730573246960
FINAL SINGLE POINT ENERGY      -996.730595942821
FINAL SINGLE POINT ENERGY      -996.730604282772
Dispersion correction             ... done (  0.1 sec)
Dispersion correction           -0.071617925
FINAL SINGLE POINT ENERGY      -996.730606352064
Dispersion correction             ... done (  0.1 sec)
Dispersion correction           -0.071616664
FINAL SINGLE POINT ENERGY      -996.730607636140
Dispersion correction             ... done (  0.1 sec)
                    ***********************HURRAY********************

CARTESIAN COORDINATES (ANGSTROEM)
---------------------------------
  C     -2.903348   -2.617493    0.123018
  C     -1.789228   -2.563714   -0.628478
  C     -0.434713   -2.162851   -0.126724
  P      0.128982   -0.598738   -0.953539
  O      0.201684   -0.699850   -2.467747
  C     -1.018833    0.705274   -0.379874
  C     -1.537934    0.782248    0.928709
  C     -2.406334    1.827826    1.278825
  C     -2.763947    2.795225    0.323632
  C     -2.259017    2.712278   -0.985191
  C     -1.391296    1.667608   -1.339333
  C      1.764151   -0.235472   -0.206429
  C      1.956841    0.061235    1.157959
  C      3.250340    0.303294    1.645355
  C      4.352415    0.253273    0.773001
  C      4.160500   -0.035178   -0.588676
  C      2.868190   -0.278981   -1.080666
  H     -2.883482   -2.393345    1.202797
  H     -3.876725   -2.888775   -0.313775
  H     -1.845705   -2.775955   -1.710358
  H     -0.405988   -2.039428    0.975872
  H      0.345997   -2.903615   -0.406051
  H     -1.279886    0.020034    1.679753
  H     -2.812562    1.884211    2.300392
  H     -3.446657    3.613324    0.600281
  H     -2.547605    3.463619   -1.736288
  H     -0.995895    1.568071   -2.362213
  H      1.097702    0.119253    1.843905
  H      3.400140    0.537585    2.710513
  H      5.365757    0.445556    1.157903
  H      5.022634   -0.067466   -1.272605
  H      2.683823   -0.499052   -2.143969

 Multiplicity           Mult            ....    1
 Number of Electrons    NEL             ....  128
 Basis Dimension        Dim             ....  317

ORBITAL ENERGIES
----------------

  NO   OCC          E(Eh)            E(eV)
   0   2.0000     -76.415937     -2079.3834
   1   2.0000     -18.718641      -509.3601
   2   2.0000      -9.936265      -270.3795
   3   2.0000      -9.935060      -270.3467
   4   2.0000      -9.932256      -270.2704
   5   2.0000      -9.931274      -270.2437
   6   2.0000      -9.931097      -270.2389
   7   2.0000      -9.931060      -270.2379
   8   2.0000      -9.930885      -270.2331
   9   2.0000      -9.929316      -270.1904
  10   2.0000      -9.928832      -270.1773
  11   2.0000      -9.928582      -270.1704
  12   2.0000      -9.928430      -270.1663
  13   2.0000      -9.927904      -270.1520
  14   2.0000      -9.927882      -270.1514
  15   2.0000      -9.927030      -270.1282
  16   2.0000      -9.915414      -269.8121
  17   2.0000      -6.374608      -173.4619
  18   2.0000      -4.595832      -125.0589
  19   2.0000      -4.595790      -125.0578
  20   2.0000      -4.595525      -125.0506
  21   2.0000      -0.852882       -23.2081
  22   2.0000      -0.781025       -21.2528
  23   2.0000      -0.778926       -21.1957
  24   2.0000      -0.722238       -19.6531
  25   2.0000      -0.689793       -18.7702
  26   2.0000      -0.678667       -18.4675
  27   2.0000      -0.678048       -18.4506
  28   2.0000      -0.676333       -18.4039
  29   2.0000      -0.632328       -17.2065
  30   2.0000      -0.571025       -15.5384
  31   2.0000      -0.552759       -15.0413
  32   2.0000      -0.549865       -14.9626
  33   2.0000      -0.542698       -14.7676
  34   2.0000      -0.510511       -13.8917
  35   2.0000      -0.493413       -13.4264
  36   2.0000      -0.475013       -12.9258
  37   2.0000      -0.456831       -12.4310
  38   2.0000      -0.427084       -11.6216
  39   2.0000      -0.417603       -11.3636
  40   2.0000      -0.413375       -11.2485
  41   2.0000      -0.408920       -11.1273
  42   2.0000      -0.404554       -11.0085
  43   2.0000      -0.395966       -10.7748
  44   2.0000      -0.384389       -10.4598
  45   2.0000      -0.382255       -10.4017
  46   2.0000      -0.379954       -10.3391
  47   2.0000      -0.370562       -10.0835
  48   2.0000      -0.351142        -9.5551
  49   2.0000      -0.342649        -9.3239
  50   2.0000      -0.338074        -9.1995
  51   2.0000      -0.324884        -8.8405
  52   2.0000      -0.317822        -8.6484
  53   2.0000      -0.315525        -8.5859
  54   2.0000      -0.311432        -8.4745
  55   2.0000      -0.301071        -8.1926
  56   2.0000      -0.298555        -8.1241
  57   2.0000      -0.248992        -6.7754
  58   2.0000      -0.246162        -6.6984
  59   2.0000      -0.240416        -6.5421
  60   2.0000      -0.239803        -6.5254
  61   2.0000      -0.233747        -6.3606
  62   2.0000      -0.221308        -6.0221
  63   2.0000      -0.214769        -5.8442
  64   0.0000      -0.071884        -1.9561
  65   0.0000      -0.058552        -1.5933
  66   0.0000      -0.053950        -1.4680
  67   0.0000      -0.050328        -1.3695
  68   0.0000      -0.032241        -0.8773

MULLIKEN ATOMIC CHARGES
-----------------------
   0 C :   -0.056397
   1 C :   -0.059374
   2 C :   -0.082244
   3 P :    0.533597
   4 O :   -0.454892
   5 C :   -0.104973
   6 C :   -0.009109
   7 C :   -0.001185
   8 C :    0.008910
   9 C :    0.002831
  10 C :    0.005784
  11 C :   -0.100062
  12 C :   -0.003060
  13 C :   -0.001018
  14 C :    0.009015
  15 C :    0.002357
  16 C :   -0.003712
  17 H :    0.027561
  18 H :    0.045003
  19 H :    0.043820
  20 H :    0.035983
  21 H :    0.073670
  22 H :   -0.002610
  23 H :    0.004595
  24 H :    0.009633
  25 H :    0.011291
  26 H :    0.023521
  27 H :   -0.009831
  28 H :    0.005751
  29 H :    0.009782
  30 H :    0.011170
  31 H :    0.024192
Sum of atomic charges:   -0.0000000

LOEWDIN ATOMIC CHARGES
----------------------
   0 C :   -0.066293
   1 C :   -0.043182
   2 C :   -0.185315
   3 P :    0.887179
   4 O :   -0.494078
   5 C :   -0.181790
   6 C :   -0.033607
   7 C :   -0.029133
   8 C :   -0.020608
   9 C :   -0.025383
  10 C :   -0.013361
  11 C :   -0.185842
  12 C :   -0.032901
  13 C :   -0.028964
  14 C :   -0.021229
  15 C :   -0.026701
  16 C :   -0.018584
  17 H :    0.023293
  18 H :    0.032474
  19 H :    0.038810
  20 H :    0.033621
  21 H :    0.050833
  22 H :    0.024602
  23 H :    0.034242
  24 H :    0.035061
  25 H :    0.036139
  26 H :    0.038966
  27 H :    0.027849
  28 H :    0.034411
  29 H :    0.034997
  30 H :    0.035939
  31 H :    0.038558

  Mayer bond orders larger than 0.100000
B(  0-C ,  1-C ) :   1.9876 B(  0-C , 17-H ) :   0.9476 B(  0-C , 18-H ) :   0.9469
B(  1-C ,  2-C ) :   1.0577 B(  1-C , 19-H ) :   0.9492 B(  2-C ,  3-P ) :   0.9012
B(  2-C , 20-H ) :   0.9048 B(  2-C , 21-H ) :   0.9051 B(  3-P ,  4-O ) :   1.8819
B(  3-P ,  5-C ) :   0.8567 B(  3-P , 11-C ) :   0.8636 B(  5-C ,  6-C ) :   1.3576
B(  5-C , 10-C ) :   1.3923 B(  6-C ,  7-C ) :   1.4047 B(  6-C , 22-H ) :   0.9631
B(  7-C ,  8-C ) :   1.3800 B(  7-C , 23-H ) :   0.9745 B(  8-C ,  9-C ) :   1.3817
B(  8-C , 24-H ) :   0.9760 B(  9-C , 10-C ) :   1.3704 B(  9-C , 25-H ) :   0.9785
B( 10-C , 26-H ) :   0.9698 B( 11-C , 12-C ) :   1.3507 B( 11-C , 16-C ) :   1.3940
B( 12-C , 13-C ) :   1.4059 B( 12-C , 27-H ) :   0.9686 B( 13-C , 14-C ) :   1.3771
B( 13-C , 28-H ) :   0.9744 B( 14-C , 15-C ) :   1.3851 B( 14-C , 29-H ) :   0.9757
B( 15-C , 16-C ) :   1.3632 B( 15-C , 30-H ) :   0.9786 B( 16-C , 31-H ) :   0.9699

Dispersion correction           -0.071611651
FINAL SINGLE POINT ENERGY      -996.730608131846

DIPOLE MOMENT
-------------

Method             : SCF
Type of density    : Electron Density
Multiplicity       :   1
Irrep              :   0
Energy             :  -996.6589964805727959 Eh
Relativity type    :
Basis              : AO
                                X                 Y                 Z
Electronic contribution:      3.662708428       1.947960768      -4.856810608
Nuclear contribution   :     -3.638484661      -1.650702071       6.220034706
                        -----------------------------------------
Total Dipole Moment    :      0.024223767       0.297258696       1.363224098
                        -----------------------------------------
Magnitude (a.u.)       :      1.395467472
Magnitude (Debye)      :      3.546996429

Rotational constants in cm-1:             0.019671             0.010544             0.008875
Rotational constants in MHz :           589.732276           316.095063           266.060556

                             ****ORCA TERMINATED NORMALLY****
TOTAL RUN TIME: 0 days 0 hours 2 minutes 23 seconds 473 msec
