                         Program Version 6.0.0  -   RELEASE   -
|  1> ! RI BP86 def2-SVP D3BJ TIGHTSCF Opt
|  2> %pal
|  3> nprocs 6
|  4> end
|  5>
|  6> * xyz 0 1
|  7> C     -1.279596    4.723808    1.550721
|  8> C     -0.356288    3.920945    2.216479
|  9> C      0.306080    2.901389    1.530687
| 10> C      0.046140    2.663062    0.169986
| 11> C     -0.877151    3.491291   -0.489178
| 12> C     -1.538649    4.510897    0.198465
| 13> C      0.778650    1.581586   -0.583351
| 14> P      0.002994    0.010120   -0.057405
| 15> C      0.938399   -1.197124   -1.065049
| 16> C      2.293548   -1.301089   -0.412026
| 17> C      2.472319   -2.035958    0.772831
| 18> C      3.734065   -2.150285    1.358885
| 19> C      4.836936   -1.541495    0.764434
| 20> C      4.680342   -0.821470   -0.417969
| 21> C      3.418846   -0.705834   -1.005577
| 22> C     -1.580587    0.077536   -0.971457
| 23> C     -2.294029   -1.207413   -0.634436
| 24> C     -2.381608   -2.243451   -1.578831
| 25> C     -3.063578   -3.424929   -1.280406
| 26> C     -3.675897   -3.583683   -0.039077
| 27> C     -3.611082   -2.560563    0.903973
| 28> C     -2.930004   -1.378748    0.607359
| 29> H     -1.795133    5.516860    2.085531
| 30> H     -0.150224    4.086557    3.270521
| 31> H      1.026031    2.282886    2.063997
| 32> H     -1.088975    3.345821   -1.545862
| 33> H     -2.255331    5.140590   -0.322021
| 34> H      0.706753    1.732523   -1.665842
| 35> H      1.840124    1.629838   -0.320524
| 36> H      1.023848   -0.880503   -2.110127
| 37> H      0.473198   -2.187943   -1.064977
| 38> H      1.619927   -2.518350    1.248249
| 39> H      3.853774   -2.714842    2.279668
| 40> H      5.818634   -1.630568    1.221669
| 41> H      5.541750   -0.350763   -0.884299
| 42> H      3.319223   -0.144821   -1.931834
| 43> H     -2.206939    0.918249   -0.656785
| 44> H     -1.427080    0.175639   -2.051527
| 45> H     -1.915996   -2.137032   -2.555813
| 46> H     -3.118499   -4.221257   -2.017899
| 47> H     -4.205820   -4.503514    0.192923
| 48> H     -4.090130   -2.680570    1.871964
| 49> H     -2.888984   -0.587392    1.353930
| 50> **                         ****END OF INPUT****
 Total Charge           Charge          ....    0
 Multiplicity           Mult            ....    1
 Number of Electrons    NEL             ....  162
Dispersion correction           -0.095892331
FINAL SINGLE POINT ENERGY     -1153.667949723886
Dispersion correction             ... done (  0.1 sec)
Dispersion correction           -0.094968028
FINAL SINGLE POINT ENERGY     -1153.677806920898
Dispersion correction             ... done (  0.1 sec)
Dispersion correction           -0.094772219
FINAL SINGLE POINT ENERGY     -1153.680415894743
Dispersion correction             ... done (  0.1 sec)
FINAL SINGLE POINT ENERGY     -1153.681114728326
FINAL SINGLE POINT ENERGY     -1153.681239174482
Dispersion correction             ... done (  0.1 sec)
Dispersion correction           -0.094762280
FINAL SINGLE POINT ENERGY     -1153.681263126021
Dispersion correction             ... done (  0.1 sec)
Dispersion correction           -0.094777179
FINAL SINGLE POINT ENERGY     -1153.681267865422
Dispersion correction             ... done (  0.1 sec)
                    ***********************HURRAY********************

CARTESIAN COORDINATES (ANGSTROEM)
---------------------------------
  C     -1.320735    4.942395    1.334822
  C     -0.516704    4.148121    2.170880
  C      0.185966    3.054358    1.644238
  C      0.104571    2.735442    0.270187
  C     -0.709386    3.537839   -0.557003
  C     -1.414560    4.633101   -0.031759
  C      0.814536    1.525269   -0.277486
  P     -0.023324   -0.052412    0.328772
  C      0.882393   -1.301855   -0.756938
  C      2.323933   -1.411352   -0.334803
  C      2.667350   -2.018814    0.893768
  C      4.002912   -2.076046    1.318480
  C      5.022634   -1.521242    0.525575
  C      4.694253   -0.909805   -0.695246
  C      3.356255   -0.854331   -1.118793
  C     -1.631676    0.074726   -0.650658
  C     -2.405060   -1.214042   -0.553570
  C     -2.480205   -2.101057   -1.648220
  C     -3.153928   -3.328421   -1.537542
  C     -3.762140   -3.692191   -0.325192
  C     -3.690949   -2.819313    0.774501
  C     -3.016644   -1.594486    0.661940
  H     -1.872178    5.800594    1.748263
  H     -0.436862    4.382848    3.243636
  H      0.806820    2.428545    2.304737
  H     -0.785669    3.299768   -1.630100
  H     -2.040627    5.248983   -0.695788
  H      0.839347    1.541154   -1.388057
  H      1.863969    1.472217    0.081431
  H      0.796588   -1.012343   -1.826118
  H      0.346486   -2.265615   -0.627390
  H      1.870038   -2.445640    1.522609
  H      4.250709   -2.557646    2.277084
  H      6.070672   -1.566280    0.858896
  H      5.484962   -0.472958   -1.324665
  H      3.103980   -0.374311   -2.077995
  H     -2.195138    0.922713   -0.207686
  H     -1.412835    0.333124   -1.708732
  H     -2.005342   -1.819946   -2.601911
  H     -3.204623   -4.003972   -2.405466
  H     -4.291216   -4.653313   -0.236740
  H     -4.164806   -3.095851    1.729093
  H     -2.953764   -0.917955    1.528945

 Multiplicity           Mult            ....    1
 Number of Electrons    NEL             ....  162
 Basis Dimension        Dim             ....  417

ORBITAL ENERGIES
----------------

  NO   OCC          E(Eh)            E(eV)
   0   2.0000     -76.341425     -2077.3558
   1   2.0000      -9.929312      -270.1903
   2   2.0000      -9.929215      -270.1877
   3   2.0000      -9.929140      -270.1856
   4   2.0000      -9.923596      -270.0348
   5   2.0000      -9.923504      -270.0323
   6   2.0000      -9.923399      -270.0294
   7   2.0000      -9.919844      -269.9327
   8   2.0000      -9.919759      -269.9304
   9   2.0000      -9.919718      -269.9293
  10   2.0000      -9.919221      -269.9157
  11   2.0000      -9.919118      -269.9129
  12   2.0000      -9.919054      -269.9112
  13   2.0000      -9.918909      -269.9072
  14   2.0000      -9.918832      -269.9051
  15   2.0000      -9.918779      -269.9037
  16   2.0000      -9.917931      -269.8806
  17   2.0000      -9.917823      -269.8777
  18   2.0000      -9.917786      -269.8767
  19   2.0000      -9.916945      -269.8538
  20   2.0000      -9.916863      -269.8516
  21   2.0000      -9.916824      -269.8505
  22   2.0000      -6.310512      -171.7178
  23   2.0000      -4.532029      -123.3228
  24   2.0000      -4.532027      -123.3227
  25   2.0000      -4.528150      -123.2172
  26   2.0000      -0.775749       -21.1092
  27   2.0000      -0.772720       -21.0268
  28   2.0000      -0.772640       -21.0246
  29   2.0000      -0.716858       -19.5067
  30   2.0000      -0.693945       -18.8832
  31   2.0000      -0.693882       -18.8815
  32   2.0000      -0.667222       -18.1560
  33   2.0000      -0.667129       -18.1535
  34   2.0000      -0.667074       -18.1520
  35   2.0000      -0.641637       -17.4598
  36   2.0000      -0.608036       -16.5455
  37   2.0000      -0.607985       -16.5441
  38   2.0000      -0.542758       -14.7692
  39   2.0000      -0.541499       -14.7349
  40   2.0000      -0.541429       -14.7330
  41   2.0000      -0.534731       -14.5508
  42   2.0000      -0.520069       -14.1518
  43   2.0000      -0.519987       -14.1496
  44   2.0000      -0.483688       -13.1618
  45   2.0000      -0.458444       -12.4749
  46   2.0000      -0.458346       -12.4722
  47   2.0000      -0.451028       -12.2731
  48   2.0000      -0.418985       -11.4012
  49   2.0000      -0.415187       -11.2978
  50   2.0000      -0.415164       -11.2972
  51   2.0000      -0.406177       -11.0526
  52   2.0000      -0.406121       -11.0511
  53   2.0000      -0.401709       -10.9310
  54   2.0000      -0.380787       -10.3618
  55   2.0000      -0.380779       -10.3615
  56   2.0000      -0.375017       -10.2047
  57   2.0000      -0.372938       -10.1482
  58   2.0000      -0.372866       -10.1462
  59   2.0000      -0.368062       -10.0155
  60   2.0000      -0.357122        -9.7178
  61   2.0000      -0.350509        -9.5378
  62   2.0000      -0.350362        -9.5338
  63   2.0000      -0.338299        -9.2056
  64   2.0000      -0.338128        -9.2009
  65   2.0000      -0.328905        -8.9500
  66   2.0000      -0.311884        -8.4868
  67   2.0000      -0.311825        -8.4852
  68   2.0000      -0.306312        -8.3352
  69   2.0000      -0.300861        -8.1869
  70   2.0000      -0.298821        -8.1313
  71   2.0000      -0.298782        -8.1303
  72   2.0000      -0.291559        -7.9337
  73   2.0000      -0.291510        -7.9324
  74   2.0000      -0.235864        -6.4182
  75   2.0000      -0.230772        -6.2796
  76   2.0000      -0.230684        -6.2772
  77   2.0000      -0.229590        -6.2475
  78   2.0000      -0.213517        -5.8101
  79   2.0000      -0.213404        -5.8070
  80   2.0000      -0.202490        -5.5100
  81   0.0000      -0.047877        -1.3028
  82   0.0000      -0.046960        -1.2779
  83   0.0000      -0.046839        -1.2745
  84   0.0000      -0.041296        -1.1237
  85   0.0000      -0.039074        -1.0632

MULLIKEN ATOMIC CHARGES
-----------------------
   0 C :   -0.000842
   1 C :   -0.001220
   2 C :   -0.003589
   3 C :   -0.029909
   4 C :   -0.014179
   5 C :   -0.002565
   6 C :   -0.088562
   7 P :    0.136818
   8 C :   -0.088684
   9 C :   -0.030603
  10 C :   -0.003590
  11 C :   -0.001112
  12 C :   -0.000874
  13 C :   -0.002576
  14 C :   -0.014177
  15 C :   -0.088182
  16 C :   -0.031128
  17 C :   -0.014119
  18 C :   -0.002376
  19 C :   -0.000852
  20 C :   -0.001138
  21 C :   -0.003660
  22 H :    0.002079
  23 H :    0.002708
  24 H :   -0.002868
  25 H :   -0.013590
  26 H :    0.000567
  27 H :    0.028496
  28 H :    0.078116
  29 H :    0.028565
  30 H :    0.078419
  31 H :   -0.002748
  32 H :    0.002715
  33 H :    0.002102
  34 H :    0.000624
  35 H :   -0.013555
  36 H :    0.077761
  37 H :    0.028620
  38 H :   -0.013613
  39 H :    0.000662
  40 H :    0.002122
  41 H :    0.002765
  42 H :   -0.002827
Sum of atomic charges:   -0.0000000

LOEWDIN ATOMIC CHARGES
----------------------
   0 C :   -0.038006
   1 C :   -0.029173
   2 C :   -0.032211
   3 C :   -0.040220
   4 C :   -0.038791
   5 C :   -0.032034
   6 C :   -0.172342
   7 P :    0.477472
   8 C :   -0.172506
   9 C :   -0.040183
  10 C :   -0.032319
  11 C :   -0.029170
  12 C :   -0.038011
  13 C :   -0.032024
  14 C :   -0.038788
  15 C :   -0.172358
  16 C :   -0.040205
  17 C :   -0.038652
  18 C :   -0.031994
  19 C :   -0.037981
  20 C :   -0.029135
  21 C :   -0.032358
  22 H :    0.031726
  23 H :    0.032878
  24 H :    0.031942
  25 H :    0.027330
  26 H :    0.032329
  27 H :    0.024337
  28 H :    0.043059
  29 H :    0.024365
  30 H :    0.043134
  31 H :    0.031960
  32 H :    0.032878
  33 H :    0.031733
  34 H :    0.032346
  35 H :    0.027360
  36 H :    0.042949
  37 H :    0.024352
  38 H :    0.027309
  39 H :    0.032366
  40 H :    0.031748
  41 H :    0.032899
  42 H :    0.031987

  Mayer bond orders larger than 0.100000
B(  0-C ,  1-C ) :   1.3751 B(  0-C ,  5-C ) :   1.3861 B(  0-C , 22-H ) :   0.9764
B(  1-C ,  2-C ) :   1.3879 B(  1-C , 23-H ) :   0.9742 B(  2-C ,  3-C ) :   1.3642
B(  2-C , 24-H ) :   0.9764 B(  3-C ,  4-C ) :   1.3859 B(  3-C ,  6-C ) :   1.0479
B(  4-C ,  5-C ) :   1.3786 B(  4-C , 25-H ) :   0.9713 B(  5-C , 26-H ) :   0.9738
B(  6-C ,  7-P ) :   0.9471 B(  6-C , 27-H ) :   0.9082 B(  6-C , 28-H ) :   0.9164
B(  7-P ,  8-C ) :   0.9464 B(  7-P , 15-C ) :   0.9465 B(  8-C ,  9-C ) :   1.0481
B(  8-C , 29-H ) :   0.9082 B(  8-C , 30-H ) :   0.9163 B(  9-C , 10-C ) :   1.3643
B(  9-C , 14-C ) :   1.3855 B( 10-C , 11-C ) :   1.3876 B( 10-C , 31-H ) :   0.9764
B( 11-C , 12-C ) :   1.3751 B( 11-C , 32-H ) :   0.9743 B( 12-C , 13-C ) :   1.3860
B( 12-C , 33-H ) :   0.9765 B( 13-C , 14-C ) :   1.3785 B( 13-C , 34-H ) :   0.9738
B( 14-C , 35-H ) :   0.9714 B( 15-C , 16-C ) :   1.0484 B( 15-C , 36-H ) :   0.9166
B( 15-C , 37-H ) :   0.9081 B( 16-C , 17-C ) :   1.3852 B( 16-C , 21-C ) :   1.3645
B( 17-C , 18-C ) :   1.3786 B( 17-C , 38-H ) :   0.9714 B( 18-C , 19-C ) :   1.3858
B( 18-C , 39-H ) :   0.9738 B( 19-C , 20-C ) :   1.3753 B( 19-C , 40-H ) :   0.9764
B( 20-C , 21-C ) :   1.3875 B( 20-C , 41-H ) :   0.9743 B( 21-C , 42-H ) :   0.9764

Dispersion correction           -0.094787418
FINAL SINGLE POINT ENERGY     -1153.681268697547

DIPOLE MOMENT
-------------

Method             : SCF
Type of density    : Electron Density
Multiplicity       :   1
Irrep              :   0
Energy             : -1153.5864812791282930 Eh
Relativity type    :
Basis              : AO
                                X                 Y                 Z
Electronic contribution:     -0.148565813      -0.456247759       2.711352846
Nuclear contribution   :      0.162263221       0.503245305      -3.002504063
                        -----------------------------------------
Total Dipole Moment    :      0.013697408       0.046997546      -0.291151217
                        -----------------------------------------
Magnitude (a.u.)       :      0.295237903
Magnitude (Debye)      :      0.750435111

Rotational constants in cm-1:             0.007306             0.007253             0.004118
Rotational constants in MHz :           219.038638           217.450487           123.445875

                             ****ORCA TERMINATED NORMALLY****
TOTAL RUN TIME: 0 days 0 hours 2 minutes 25 seconds 270 msec
