                         Program Version 6.0.0  -   RELEASE   -
|  1> ! RIJONX B3LYP def2-SVP D3BJ TIGHTSCF Opt
|  2> %pal
|  3> nprocs 6
|  4> end
|  5>
|  6> * xyz 0 1
|  7> C      5.231090    1.138130    0.106683
|  8> C      3.829150    1.644308    0.406653
|  9> C      2.768097    0.827426   -0.332714
| 10> C      1.361819    1.343425   -0.023235
| 11> P      0.055063    0.416204   -0.949928
| 12> C     -1.449865    1.223578   -0.236173
| 13> C     -2.744878    0.592442   -0.750235
| 14> C     -3.970290    1.311869   -0.184034
| 15> C     -5.263290    0.690826   -0.688109
| 16> C      0.061664   -1.205659   -0.124254
| 17> C     -0.036638   -1.366173    1.264113
| 18> C     -0.025958   -2.639983    1.840048
| 19> C      0.083216   -3.770707    1.034892
| 20> C      0.181763   -3.628653   -0.346314
| 21> C      0.171000   -2.355026   -0.921042
| 22> H      5.973156    1.735931    0.645072
| 23> H      5.346008    0.094494    0.416461
| 24> H      5.451944    1.205568   -0.963360
| 25> H      3.652186    1.592934    1.487296
| 26> H      3.757712    2.698662    0.115253
| 27> H      2.860026   -0.226813   -0.043237
| 28> H      2.958549    0.877544   -1.412560
| 29> H      1.175888    1.306304    1.055372
| 30> H      1.292973    2.397062   -0.318777
| 31> H     -1.425731    1.195406    0.858344
| 32> H     -1.426767    2.281135   -0.524747
| 33> H     -2.789751   -0.467627   -0.471119
| 34> H     -2.774375    0.633185   -1.846739
| 35> H     -3.945320    2.370332   -0.468130
| 36> H     -3.954092    1.268725    0.911238
| 37> H     -6.125748    1.220237   -0.271237
| 38> H     -5.325674    0.746198   -1.779603
| 39> H     -5.334757   -0.360755   -0.392452
| 40> H     -0.123106   -0.505621    1.921507
| 41> H     -0.103085   -2.747235    2.918817
| 42> H      0.091496   -4.760702    1.482766
| 43> H      0.267207   -4.507327   -0.980007
| 44> H      0.249315   -2.269642   -2.003205
| 45> **                         ****END OF INPUT****
 Total Charge           Charge          ....    0
 Multiplicity           Mult            ....    1
 Number of Electrons    NEL             ....  122
Dispersion correction           -0.071648421
FINAL SINGLE POINT ENERGY      -887.848124496687
Dispersion correction             ... done (  0.1 sec)
Dispersion correction           -0.071418703
FINAL SINGLE POINT ENERGY      -887.851150875275
Dispersion correction             ... done (  0.1 sec)
Dispersion correction           -0.071560438
FINAL SINGLE POINT ENERGY      -887.851621844045
Dispersion correction             ... done (  0.1 sec)
FINAL SINGLE POINT ENERGY      -887.851709073580
Dispersion correction             ... done (  0.1 sec)
Dispersion correction           -0.071595131
FINAL SINGLE POINT ENERGY      -887.851722287506
Dispersion correction             ... done (  0.1 sec)
Dispersion correction           -0.071583839
FINAL SINGLE POINT ENERGY      -887.851724308168
Dispersion correction             ... done (  0.1 sec)
                    ***********************HURRAY********************

CARTESIAN COORDINATES (ANGSTROEM)
---------------------------------
  C      5.269749    1.015798    0.217034
  C      3.871441    1.588485    0.445004
  C      2.780696    0.837915   -0.323700
  C      1.378047    1.402948   -0.094260
  P      0.062949    0.505156   -1.076045
  C     -1.457151    1.285481   -0.313971
  C     -2.755949    0.600148   -0.741761
  C     -4.009735    1.255221   -0.156294
  C     -5.303358    0.558030   -0.575617
  C      0.064073   -1.134516   -0.205897
  C     -0.042504   -1.269268    1.189100
  C     -0.036975   -2.530127    1.788480
  C      0.075420   -3.681316    1.000306
  C      0.181984   -3.562970   -0.387167
  C      0.176065   -2.297375   -0.983530
  H      6.034382    1.570520    0.784259
  H      5.322918   -0.040987    0.528754
  H      5.548772    1.057864   -0.849360
  H      3.632020    1.567469    1.523899
  H      3.853137    2.654678    0.153833
  H      2.797131   -0.226974   -0.030023
  H      3.012662    0.856414   -1.404066
  H      1.129233    1.388901    0.981878
  H      1.335898    2.460100   -0.412119
  H     -1.372882    1.295166    0.787440
  H     -1.459173    2.341810   -0.637220
  H     -2.725091   -0.461240   -0.436989
  H     -2.823755    0.595312   -1.844816
  H     -4.042185    2.316972   -0.462133
  H     -3.931638    1.262424    0.946280
  H     -6.189206    1.046294   -0.138594
  H     -5.423568    0.566745   -1.672094
  H     -5.309187   -0.496807   -0.253116
  H     -0.132138   -0.380576    1.819826
  H     -0.120852   -2.617104    2.875179
  H      0.079600   -4.668522    1.469650
  H      0.269954   -4.457844   -1.008893
  H      0.259213   -2.204224   -2.069955

 Multiplicity           Mult            ....    1
 Number of Electrons    NEL             ....  122
 Basis Dimension        Dim             ....  329

ORBITAL ENERGIES
----------------

  NO   OCC          E(Eh)            E(eV)
   0   2.0000     -77.035104     -2096.2317
   1   2.0000     -10.191576      -277.3269
   2   2.0000     -10.191458      -277.3237
   3   2.0000     -10.190846      -277.3070
   4   2.0000     -10.189676      -277.2752
   5   2.0000     -10.189120      -277.2600
   6   2.0000     -10.186811      -277.1972
   7   2.0000     -10.179507      -276.9985
   8   2.0000     -10.179460      -276.9972
   9   2.0000     -10.177121      -276.9335
  10   2.0000     -10.177103      -276.9330
  11   2.0000     -10.177038      -276.9313
  12   2.0000     -10.177026      -276.9310
  13   2.0000     -10.172710      -276.8135
  14   2.0000     -10.172709      -276.8135
  15   2.0000      -6.532004      -177.7449
  16   2.0000      -4.697591      -127.8279
  17   2.0000      -4.697160      -127.8162
  18   2.0000      -4.694340      -127.7395
  19   2.0000      -0.845608       -23.0102
  20   2.0000      -0.791202       -21.5297
  21   2.0000      -0.783095       -21.3091
  22   2.0000      -0.749078       -20.3834
  23   2.0000      -0.736435       -20.0394
  24   2.0000      -0.721047       -19.6207
  25   2.0000      -0.710379       -19.3304
  26   2.0000      -0.647049       -17.6071
  27   2.0000      -0.610229       -16.6052
  28   2.0000      -0.600598       -16.3431
  29   2.0000      -0.594116       -16.1667
  30   2.0000      -0.570732       -15.5304
  31   2.0000      -0.563630       -15.3371
  32   2.0000      -0.538035       -14.6407
  33   2.0000      -0.499887       -13.6026
  34   2.0000      -0.468854       -12.7582
  35   2.0000      -0.464761       -12.6468
  36   2.0000      -0.450775       -12.2662
  37   2.0000      -0.443999       -12.0818
  38   2.0000      -0.427182       -11.6242
  39   2.0000      -0.425907       -11.5895
  40   2.0000      -0.424108       -11.5406
  41   2.0000      -0.416418       -11.3313
  42   2.0000      -0.408456       -11.1147
  43   2.0000      -0.399219       -10.8633
  44   2.0000      -0.395574       -10.7641
  45   2.0000      -0.378089       -10.2883
  46   2.0000      -0.370248       -10.0750
  47   2.0000      -0.359505        -9.7826
  48   2.0000      -0.353444        -9.6177
  49   2.0000      -0.346513        -9.4291
  50   2.0000      -0.345289        -9.3958
  51   2.0000      -0.344454        -9.3731
  52   2.0000      -0.334729        -9.1084
  53   2.0000      -0.329582        -8.9684
  54   2.0000      -0.320211        -8.7134
  55   2.0000      -0.317936        -8.6515
  56   2.0000      -0.306879        -8.3506
  57   2.0000      -0.294960        -8.0263
  58   2.0000      -0.255449        -6.9511
  59   2.0000      -0.250977        -6.8294
  60   2.0000      -0.223372        -6.0783
  61   0.0000      -0.020626        -0.5613
  62   0.0000      -0.009093        -0.2474
  63   0.0000       0.055011         1.4969
  64   0.0000       0.058270         1.5856
  65   0.0000       0.058477         1.5912

MULLIKEN ATOMIC CHARGES
-----------------------
   0 C :    0.020131
   1 C :   -0.013088
   2 C :    0.024341
   3 C :   -0.124859
   4 P :    0.219615
   5 C :   -0.125332
   6 C :    0.024011
   7 C :   -0.013133
   8 C :    0.020138
   9 C :   -0.141276
  10 C :    0.011844
  11 C :    0.023409
  12 C :    0.022264
  13 C :    0.021409
  14 C :    0.020542
  15 H :    0.007610
  16 H :    0.007068
  17 H :    0.006092
  18 H :   -0.005697
  19 H :   -0.005059
  20 H :    0.009373
  21 H :    0.000774
  22 H :    0.008978
  23 H :    0.021672
  24 H :    0.009082
  25 H :    0.021806
  26 H :    0.009603
  27 H :    0.000881
  28 H :   -0.004978
  29 H :   -0.005833
  30 H :    0.007613
  31 H :    0.006081
  32 H :    0.007104
  33 H :   -0.021217
  34 H :   -0.019405
  35 H :   -0.015226
  36 H :   -0.015998
  37 H :   -0.020339
Sum of atomic charges:   -0.0000000

LOEWDIN ATOMIC CHARGES
----------------------
   0 C :   -0.056400
   1 C :   -0.037127
   2 C :   -0.044375
   3 C :   -0.172732
   4 P :    0.471727
   5 C :   -0.172889
   6 C :   -0.044339
   7 C :   -0.037109
   8 C :   -0.056386
   9 C :   -0.175133
  10 C :   -0.028853
  11 C :   -0.026482
  12 C :   -0.021578
  13 C :   -0.026142
  14 C :   -0.029560
  15 H :    0.022052
  16 H :    0.020965
  17 H :    0.020678
  18 H :    0.017058
  19 H :    0.016963
  20 H :    0.020189
  21 H :    0.018376
  22 H :    0.010559
  23 H :    0.019921
  24 H :    0.010531
  25 H :    0.019978
  26 H :    0.020207
  27 H :    0.018418
  28 H :    0.016976
  29 H :    0.017017
  30 H :    0.022044
  31 H :    0.020681
  32 H :    0.020968
  33 H :    0.020535
  34 H :    0.026155
  35 H :    0.026852
  36 H :    0.027089
  37 H :    0.023161

  Mayer bond orders larger than 0.100000
B(  0-C ,  1-C ) :   1.1072 B(  0-C , 15-H ) :   0.9650 B(  0-C , 16-H ) :   0.9686
B(  0-C , 17-H ) :   0.9686 B(  1-C ,  2-C ) :   1.0876 B(  1-C , 18-H ) :   0.9440
B(  1-C , 19-H ) :   0.9454 B(  2-C ,  3-C ) :   1.0568 B(  2-C , 20-H ) :   0.9419
B(  2-C , 21-H ) :   0.9386 B(  3-C ,  4-P ) :   0.9673 B(  3-C , 22-H ) :   0.9247
B(  3-C , 23-H ) :   0.9383 B(  4-P ,  5-C ) :   0.9672 B(  4-P ,  9-C ) :   0.9138
B(  5-C ,  6-C ) :   1.0568 B(  5-C , 24-H ) :   0.9246 B(  5-C , 25-H ) :   0.9383
B(  6-C ,  7-C ) :   1.0876 B(  6-C , 26-H ) :   0.9420 B(  6-C , 27-H ) :   0.9386
B(  7-C ,  8-C ) :   1.1071 B(  7-C , 28-H ) :   0.9454 B(  7-C , 29-H ) :   0.9440
B(  8-C , 30-H ) :   0.9650 B(  8-C , 31-H ) :   0.9686 B(  8-C , 32-H ) :   0.9686
B(  9-C , 10-C ) :   1.3502 B(  9-C , 14-C ) :   1.3993 B( 10-C , 11-C ) :   1.4130
B( 10-C , 33-H ) :   0.9788 B( 11-C , 12-C ) :   1.3707 B( 11-C , 34-H ) :   0.9830
B( 12-C , 13-C ) :   1.3924 B( 12-C , 35-H ) :   0.9843 B( 13-C , 14-C ) :   1.3779
B( 13-C , 36-H ) :   0.9858 B( 14-C , 37-H ) :   0.9849

Dispersion correction           -0.071575819
FINAL SINGLE POINT ENERGY      -887.851724603237

DIPOLE MOMENT
-------------

Method             : SCF
Type of density    : Electron Density
Multiplicity       :   1
Irrep              :   0
Energy             :  -887.7801487840049504 Eh
Relativity type    :
Basis              : AO
                                X                 Y                 Z
Electronic contribution:      0.631925059      -9.334698623      -3.193101335
Nuclear contribution   :     -0.667119150       9.303548331       3.654186543
                        -----------------------------------------
Total Dipole Moment    :     -0.035194091      -0.031150292       0.461085208
                        -----------------------------------------
Magnitude (a.u.)       :      0.463474415
Magnitude (Debye)      :      1.178058342

Rotational constants in cm-1:             0.019671             0.009818             0.007321
Rotational constants in MHz :           589.726589           294.333893           219.463112

                             ****ORCA TERMINATED NORMALLY****
TOTAL RUN TIME: 0 days 0 hours 3 minutes 31 seconds 915 msec
