                         Program Version 6.0.0  -   RELEASE   -
|  1> ! RI BP86 def2-SVP D3BJ TIGHTSCF Opt
|  2> %pal
|  3> nprocs 6
|  4> end
|  5>
|  6> * xyz 0 1
|  7> C     -2.809648   -2.946903    0.520794
|  8> C     -2.379030   -2.479656   -0.719061
|  9> C     -1.390268   -1.496285   -0.792272
| 10> C     -0.820128   -0.969497    0.374680
| 11> C     -1.264888   -1.450090    1.615365
| 12> C     -2.252695   -2.432480    1.688835
| 13> P      0.447908    0.291544    0.338703
| 14> O      1.256998    0.355253    1.621741
| 15> C      1.597409   -0.073416   -1.024846
| 16> C      2.238845   -1.460726   -1.025232
| 17> C      2.887252   -1.899757    0.286955
| 18> N      3.796490   -0.889785    0.811776
| 19> C     -0.334641    1.858418   -0.046378
| 20> C     -0.293321    2.895924    0.897127
| 21> C     -0.891593    4.128127    0.631324
| 22> C     -1.540352    4.338657   -0.582702
| 23> C     -1.590588    3.318158   -1.529783
| 24> C     -0.991267    2.085036   -1.263805
| 25> H     -3.579810   -3.711905    0.577336
| 26> H     -2.815098   -2.882526   -1.629932
| 27> H     -1.069866   -1.150744   -1.770955
| 28> H     -0.832701   -1.053889    2.533475
| 29> H     -2.586438   -2.794798    2.657898
| 30> H      1.071241    0.058594   -1.976554
| 31> H      2.379055    0.695198   -1.002695
| 32> H      1.481536   -2.206524   -1.292863
| 33> H      2.990145   -1.487953   -1.824847
| 34> H      2.122912   -2.134889    1.035164
| 35> H      3.446905   -2.824932    0.109386
| 36> H      3.219346   -0.146667    1.233212
| 37> H      4.295294   -1.281746    1.611063
| 38> H      0.212590    2.740791    1.849179
| 39> H     -0.850238    4.922088    1.372655
| 40> H     -2.007134    5.298087   -0.790087
| 41> H     -2.098624    3.483520   -2.476645
| 42> H     -1.045596    1.305776   -2.018010
| 43> **                         ****END OF INPUT****
 Total Charge           Charge          ....    0
 Multiplicity           Mult            ....    1
 Number of Electrons    NEL             ....  138
Dispersion correction           -0.080018482
FINAL SINGLE POINT ENERGY     -1053.271652285058
Dispersion correction             ... done (  0.1 sec)
Dispersion correction           -0.079966429
FINAL SINGLE POINT ENERGY     -1053.279300427230
Dispersion correction             ... done (  0.1 sec)
Dispersion correction           -0.080047473
FINAL SINGLE POINT ENERGY     -1053.280977055248
Dispersion correction             ... done (  0.1 sec)
FINAL SINGLE POINT ENERGY     -1053.281352715128
FINAL SINGLE POINT ENERGY     -1053.281434759741
FINAL SINGLE POINT ENERGY     -1053.281476145989
FINAL SINGLE POINT ENERGY     -1053.281494508441
FINAL SINGLE POINT ENERGY     -1053.281501573054
Dispersion correction             ... done (  0.1 sec)
Dispersion correction           -0.079974862
FINAL SINGLE POINT ENERGY     -1053.281503266861
Dispersion correction             ... done (  0.1 sec)
Dispersion correction           -0.079974769
FINAL SINGLE POINT ENERGY     -1053.281503947918
Dispersion correction             ... done (  0.1 sec)
                    ***********************HURRAY********************

CARTESIAN COORDINATES (ANGSTROEM)
---------------------------------
  C     -2.786885   -2.980489    0.463671
  C     -2.339206   -2.507294   -0.782050
  C     -1.346764   -1.516194   -0.841565
  C     -0.802004   -0.992694    0.349121
  C     -1.243687   -1.477728    1.596109
  C     -2.236886   -2.467672    1.651156
  P      0.484884    0.308084    0.384173
  O      1.162699    0.410773    1.750004
  C      1.633590   -0.047388   -1.009976
  C      2.229231   -1.465834   -1.019873
  C      2.832429   -1.900258    0.328832
  N      3.721875   -0.871255    0.871292
  C     -0.351068    1.879366   -0.055113
  C     -0.143873    2.962552    0.821224
  C     -0.738457    4.205427    0.550554
  C     -1.540331    4.368027   -0.591572
  C     -1.752058    3.285771   -1.464595
  C     -1.159871    2.041983   -1.197936
  H     -3.564297   -3.758656    0.507727
  H     -2.761383   -2.917191   -1.712365
  H     -0.990846   -1.163490   -1.822056
  H     -0.783053   -1.069733    2.509316
  H     -2.581587   -2.845065    2.626186
  H      1.123012    0.192355   -1.966373
  H      2.442027    0.703271   -0.878035
  H      1.453299   -2.201399   -1.322392
  H      3.020626   -1.486048   -1.799427
  H      1.993132   -2.174210    1.018276
  H      3.408209   -2.835460    0.159674
  H      3.121740   -0.192970    1.373741
  H      4.321578   -1.288999    1.593659
  H      0.484732    2.800277    1.710653
  H     -0.576355    5.051645    1.235871
  H     -2.007024    5.342465   -0.802927
  H     -2.385308    3.411822   -2.356180
  H     -1.342117    1.196213   -1.878803

 Multiplicity           Mult            ....    1
 Number of Electrons    NEL             ....  138
 Basis Dimension        Dim             ....  346

ORBITAL ENERGIES
----------------

  NO   OCC          E(Eh)            E(eV)
   0   2.0000     -76.417252     -2079.4191
   1   2.0000     -18.724106      -509.5088
   2   2.0000     -13.968263      -380.0958
   3   2.0000      -9.938222      -270.4328
   4   2.0000      -9.935123      -270.3484
   5   2.0000      -9.933402      -270.3016
   6   2.0000      -9.933097      -270.2933
   7   2.0000      -9.931660      -270.2542
   8   2.0000      -9.931006      -270.2364
   9   2.0000      -9.930828      -270.2316
  10   2.0000      -9.930751      -270.2295
  11   2.0000      -9.930253      -270.2159
  12   2.0000      -9.929248      -270.1886
  13   2.0000      -9.928438      -270.1665
  14   2.0000      -9.927746      -270.1477
  15   2.0000      -9.923831      -270.0412
  16   2.0000      -9.922946      -270.0171
  17   2.0000      -9.914094      -269.7762
  18   2.0000      -6.375781      -173.4938
  19   2.0000      -4.597097      -125.0934
  20   2.0000      -4.597064      -125.0925
  21   2.0000      -4.596538      -125.0781
  22   2.0000      -0.856773       -23.3140
  23   2.0000      -0.782794       -21.3009
  24   2.0000      -0.779514       -21.2117
  25   2.0000      -0.775562       -21.1041
  26   2.0000      -0.705776       -19.2052
  27   2.0000      -0.682344       -18.5675
  28   2.0000      -0.680496       -18.5172
  29   2.0000      -0.678291       -18.4572
  30   2.0000      -0.677278       -18.4297
  31   2.0000      -0.610050       -16.6003
  32   2.0000      -0.569802       -15.5051
  33   2.0000      -0.553680       -15.0664
  34   2.0000      -0.550416       -14.9776
  35   2.0000      -0.543650       -14.7935
  36   2.0000      -0.516623       -14.0580
  37   2.0000      -0.493684       -13.4338
  38   2.0000      -0.475580       -12.9412
  39   2.0000      -0.453634       -12.3440
  40   2.0000      -0.434425       -11.8213
  41   2.0000      -0.424117       -11.5408
  42   2.0000      -0.414810       -11.2876
  43   2.0000      -0.414040       -11.2666
  44   2.0000      -0.409213       -11.1353
  45   2.0000      -0.402310       -10.9474
  46   2.0000      -0.386605       -10.5200
  47   2.0000      -0.385010       -10.4766
  48   2.0000      -0.382202       -10.4003
  49   2.0000      -0.380450       -10.3526
  50   2.0000      -0.362029        -9.8513
  51   2.0000      -0.356941        -9.7129
  52   2.0000      -0.342070        -9.3082
  53   2.0000      -0.338908        -9.2221
  54   2.0000      -0.332598        -9.0504
  55   2.0000      -0.320441        -8.7196
  56   2.0000      -0.313512        -8.5311
  57   2.0000      -0.310809        -8.4575
  58   2.0000      -0.309045        -8.4096
  59   2.0000      -0.301334        -8.1997
  60   2.0000      -0.295396        -8.0381
  61   2.0000      -0.288042        -7.8380
  62   2.0000      -0.248557        -6.7636
  63   2.0000      -0.243507        -6.6262
  64   2.0000      -0.240748        -6.5511
  65   2.0000      -0.237399        -6.4599
  66   2.0000      -0.225308        -6.1309
  67   2.0000      -0.221213        -6.0195
  68   2.0000      -0.176099        -4.7919
  69   0.0000      -0.073224        -1.9925
  70   0.0000      -0.058744        -1.5985
  71   0.0000      -0.054428        -1.4810
  72   0.0000      -0.050311        -1.3690
  73   0.0000       0.015819         0.4305

MULLIKEN ATOMIC CHARGES
-----------------------
   0 C :    0.008458
   1 C :   -0.000208
   2 C :   -0.012182
   3 C :   -0.117732
   4 C :    0.007364
   5 C :    0.003161
   6 P :    0.548359
   7 O :   -0.470480
   8 C :   -0.145371
   9 C :    0.008179
  10 C :    0.005049
  11 N :   -0.229698
  12 C :   -0.091818
  13 C :   -0.003301
  14 C :    0.002764
  15 C :    0.009104
  16 C :   -0.000735
  17 C :   -0.006391
  18 H :    0.010476
  19 H :    0.006088
  20 H :    0.005268
  21 H :    0.023163
  22 H :    0.011685
  23 H :    0.040830
  24 H :    0.075371
  25 H :    0.018526
  26 H :    0.026565
  27 H :    0.015915
  28 H :    0.013271
  29 H :    0.101026
  30 H :    0.095912
  31 H :    0.023540
  32 H :    0.011063
  33 H :    0.009781
  34 H :    0.005774
  35 H :   -0.008775
Sum of atomic charges:   -0.0000000

LOEWDIN ATOMIC CHARGES
----------------------
   0 C :   -0.020748
   1 C :   -0.028740
   2 C :   -0.036285
   3 C :   -0.182797
   4 C :   -0.015168
   5 C :   -0.025180
   6 P :    0.892641
   7 O :   -0.491979
   8 C :   -0.190326
   9 C :   -0.058624
  10 C :   -0.006467
  11 N :   -0.137667
  12 C :   -0.182448
  13 C :   -0.017768
  14 C :   -0.026451
  15 C :   -0.020993
  16 C :   -0.028741
  17 C :   -0.032550
  18 H :    0.035429
  19 H :    0.034880
  20 H :    0.027401
  21 H :    0.038399
  22 H :    0.036341
  23 H :    0.033012
  24 H :    0.047214
  25 H :    0.024991
  26 H :    0.032535
  27 H :    0.003250
  28 H :    0.021986
  29 H :    0.045559
  30 H :    0.058342
  31 H :    0.038113
  32 H :    0.035957
  33 H :    0.035033
  34 H :    0.034478
  35 H :    0.027372

  Mayer bond orders larger than 0.100000
B(  0-C ,  1-C ) :   1.3803 B(  0-C ,  5-C ) :   1.3801 B(  0-C , 18-H ) :   0.9762
B(  1-C ,  2-C ) :   1.4006 B(  1-C , 19-H ) :   0.9749 B(  2-C ,  3-C ) :   1.3574
B(  2-C , 20-H ) :   0.9628 B(  3-C ,  4-C ) :   1.3888 B(  3-C ,  6-P ) :   0.8649
B(  4-C ,  5-C ) :   1.3699 B(  4-C , 21-H ) :   0.9698 B(  5-C , 22-H ) :   0.9786
B(  6-P ,  7-O ) :   1.7697 B(  6-P ,  8-C ) :   0.9564 B(  6-P , 12-C ) :   0.8605
B(  8-C ,  9-C ) :   1.0868 B(  8-C , 23-H ) :   0.9034 B(  8-C , 24-H ) :   0.9031
B(  9-C , 10-C ) :   1.0817 B(  9-C , 25-H ) :   0.9281 B(  9-C , 26-H ) :   0.9224
B( 10-C , 11-N ) :   1.1290 B( 10-C , 27-H ) :   0.9140 B( 10-C , 28-H ) :   0.9399
B( 11-N , 29-H ) :   0.9278 B( 11-N , 30-H ) :   0.9591 B( 12-C , 13-C ) :   1.3968
B( 12-C , 17-C ) :   1.3539 B( 13-C , 14-C ) :   1.3615 B( 13-C , 31-H ) :   0.9699
B( 14-C , 15-C ) :   1.3859 B( 14-C , 32-H ) :   0.9785 B( 15-C , 16-C ) :   1.3766
B( 15-C , 33-H ) :   0.9757 B( 16-C , 17-C ) :   1.4066 B( 16-C , 34-H ) :   0.9743
B( 17-C , 35-H ) :   0.9674

Dispersion correction           -0.079973437
FINAL SINGLE POINT ENERGY     -1053.281504122022

DIPOLE MOMENT
-------------

Method             : SCF
Type of density    : Electron Density
Multiplicity       :   1
Irrep              :   0
Energy             : -1053.2015306846492422 Eh
Relativity type    :
Basis              : AO
                                X                 Y                 Z
Electronic contribution:     -6.435142638       5.652808342       3.428716432
Nuclear contribution   :      5.371197990      -5.862234928      -4.218464226
                        -----------------------------------------
Total Dipole Moment    :     -1.063944647      -0.209426585      -0.789747794
                        -----------------------------------------
Magnitude (a.u.)       :      1.341469077
Magnitude (Debye)      :      3.409743417

Rotational constants in cm-1:             0.015144             0.010588             0.007705
Rotational constants in MHz :           453.997814           317.435184           230.999852

                             ****ORCA TERMINATED NORMALLY****
TOTAL RUN TIME: 0 days 0 hours 2 minutes 48 seconds 188 msec
