                         Program Version 6.0.0  -   RELEASE   -
|  1> ! RIJONX B3LYP def2-SVP D3BJ TIGHTSCF Opt
|  2> %pal
|  3> nprocs 6
|  4> end
|  5>
|  6> * xyz 0 1
|  7> C      2.751471   -0.306212   -2.160390
|  8> C      2.511913   -1.108467   -0.905035
|  9> C      3.562409   -1.921220   -0.436806
| 10> C      3.417036   -2.691537    0.713652
| 11> C      2.219730   -2.660629    1.414135
| 12> C      1.168192   -1.857404    0.965856
| 13> C      1.285779   -1.063595   -0.192297
| 14> P     -0.099163   -0.010187   -0.775348
| 15> C      0.260629    1.656532   -0.096911
| 16> C      1.228108    1.847154    0.909532
| 17> C      1.505325    3.113834    1.429656
| 18> C      0.821940    4.224058    0.954722
| 19> C     -0.137102    4.068414   -0.042317
| 20> C     -0.426969    2.799675   -0.580487
| 21> C     -1.479168    2.718694   -1.659021
| 22> C     -1.562183   -0.594566    0.165798
| 23> C     -1.984508    0.052509    1.344024
| 24> C     -3.097270   -0.388767    2.064365
| 25> C     -3.817967   -1.489296    1.623223
| 26> C     -3.427736   -2.147432    0.460187
| 27> C     -2.310800   -1.714391   -0.280270
| 28> C     -1.956487   -2.482713   -1.529694
| 29> H      2.714149    0.766118   -1.944923
| 30> H      2.012880   -0.559819   -2.927489
| 31> H      3.738424   -0.515553   -2.587667
| 32> H      4.507953   -1.958767   -0.974181
| 33> H      4.236926   -3.314818    1.059911
| 34> H      2.096976   -3.260073    2.312342
| 35> H      0.253599   -1.863878    1.553310
| 36> H      1.786369    1.009376    1.319528
| 37> H      2.256800    3.226392    2.206697
| 38> H      1.034868    5.210493    1.357465
| 39> H     -0.662375    4.950322   -0.403653
| 40> H     -1.063922    2.278602   -2.571251
| 41> H     -1.854999    3.712164   -1.927788
| 42> H     -2.336728    2.131146   -1.316842
| 43> H     -1.450605    0.914977    1.734816
| 44> H     -3.395835    0.132007    2.970362
| 45> H     -4.683592   -1.835280    2.181418
| 46> H     -4.005400   -3.007939    0.128423
| 47> H     -1.959608   -1.822514   -2.402850
| 48> H     -0.976755   -2.958803   -1.423989
| 49> H     -2.682302   -3.278609   -1.730213
| 50> **                         ****END OF INPUT****
 Total Charge           Charge          ....    0
 Multiplicity           Mult            ....    1
 Number of Electrons    NEL             ....  162
Dispersion correction           -0.107881536
FINAL SINGLE POINT ENERGY     -1153.083132766291
Dispersion correction             ... done (  0.1 sec)
Dispersion correction           -0.110160162
FINAL SINGLE POINT ENERGY     -1153.089134193782
Dispersion correction             ... done (  0.1 sec)
Dispersion correction           -0.111452523
FINAL SINGLE POINT ENERGY     -1153.090207412052
Dispersion correction             ... done (  0.1 sec)
FINAL SINGLE POINT ENERGY     -1153.089546554675
FINAL SINGLE POINT ENERGY     -1153.090607289510
FINAL SINGLE POINT ENERGY     -1153.090685567132
FINAL SINGLE POINT ENERGY     -1153.090702009317
FINAL SINGLE POINT ENERGY     -1153.090732263823
FINAL SINGLE POINT ENERGY     -1153.090745601587
Dispersion correction             ... done (  0.1 sec)
Dispersion correction           -0.110800353
FINAL SINGLE POINT ENERGY     -1153.090748814079
Dispersion correction             ... done (  0.1 sec)
Dispersion correction           -0.110798736
FINAL SINGLE POINT ENERGY     -1153.090751006365
Dispersion correction             ... done (  0.1 sec)
                    ***********************HURRAY********************

CARTESIAN COORDINATES (ANGSTROEM)
---------------------------------
  C      2.771535   -0.108041   -2.014563
  C      2.506599   -1.047402   -0.865591
  C      3.523639   -1.894185   -0.402286
  C      3.318973   -2.762534    0.672634
  C      2.078593   -2.790658    1.312066
  C      1.054422   -1.949953    0.870199
  C      1.248395   -1.078450   -0.213229
  P     -0.109394   -0.011263   -0.871785
  C      0.288816    1.633597   -0.128788
  C      1.347234    1.807406    0.777033
  C      1.666171    3.070762    1.280119
  C      0.918857    4.180758    0.883133
  C     -0.139808    4.017085   -0.013369
  C     -0.471779    2.758733   -0.535325
  C     -1.635913    2.618457   -1.482784
  C     -1.559319   -0.556315    0.136476
  C     -2.026552    0.183550    1.234390
  C     -3.159606   -0.218146    1.945516
  C     -3.838027   -1.377366    1.565718
  C     -3.377390   -2.123431    0.478350
  C     -2.246332   -1.733529   -0.252988
  C     -1.768106   -2.576859   -1.407673
  H      2.790330    0.940925   -1.673431
  H      1.977940   -0.174202   -2.776546
  H      3.737476   -0.325415   -2.493274
  H      4.496619   -1.872185   -0.901499
  H      4.128904   -3.415356    1.008260
  H      1.905749   -3.462273    2.156908
  H      0.087672   -1.967686    1.376849
  H      1.927464    0.939351    1.095593
  H      2.494780    3.183535    1.983963
  H      1.157850    5.175021    1.269298
  H     -0.725437    4.887568   -0.322650
  H     -1.358990    2.030246   -2.372814
  H     -2.003150    3.601530   -1.811599
  H     -2.475060    2.085414   -1.004486
  H     -1.492974    1.085982    1.538626
  H     -3.506888    0.373260    2.796598
  H     -4.726174   -1.702964    2.113420
  H     -3.909301   -3.032131    0.182175
  H     -1.570877   -1.959741   -2.299259
  H     -0.819925   -3.085224   -1.163272
  H     -2.507014   -3.347873   -1.670113

 Multiplicity           Mult            ....    1
 Number of Electrons    NEL             ....  162
 Basis Dimension        Dim             ....  417

ORBITAL ENERGIES
----------------

  NO   OCC          E(Eh)            E(eV)
   0   2.0000     -77.049075     -2096.6119
   1   2.0000     -10.195800      -277.4418
   2   2.0000     -10.195764      -277.4408
   3   2.0000     -10.195648      -277.4377
   4   2.0000     -10.188253      -277.2365
   5   2.0000     -10.188236      -277.2360
   6   2.0000     -10.188170      -277.2342
   7   2.0000     -10.187347      -277.2118
   8   2.0000     -10.187308      -277.2107
   9   2.0000     -10.187234      -277.2087
  10   2.0000     -10.186009      -277.1754
  11   2.0000     -10.185964      -277.1742
  12   2.0000     -10.185873      -277.1717
  13   2.0000     -10.184876      -277.1446
  14   2.0000     -10.184858      -277.1441
  15   2.0000     -10.184795      -277.1424
  16   2.0000     -10.184409      -277.1319
  17   2.0000     -10.184399      -277.1316
  18   2.0000     -10.184260      -277.1278
  19   2.0000     -10.179552      -276.9997
  20   2.0000     -10.179537      -276.9993
  21   2.0000     -10.179463      -276.9973
  22   2.0000      -6.544371      -178.0814
  23   2.0000      -4.709841      -128.1613
  24   2.0000      -4.709837      -128.1612
  25   2.0000      -4.706986      -128.0836
  26   2.0000      -0.852889       -23.2083
  27   2.0000      -0.843942       -22.9648
  28   2.0000      -0.843913       -22.9640
  29   2.0000      -0.767181       -20.8761
  30   2.0000      -0.761694       -20.7267
  31   2.0000      -0.761682       -20.7264
  32   2.0000      -0.751689       -20.4545
  33   2.0000      -0.729304       -19.8454
  34   2.0000      -0.729278       -19.8447
  35   2.0000      -0.677378       -18.4324
  36   2.0000      -0.672054       -18.2875
  37   2.0000      -0.672040       -18.2871
  38   2.0000      -0.637335       -17.3428
  39   2.0000      -0.596890       -16.2422
  40   2.0000      -0.596878       -16.2419
  41   2.0000      -0.581213       -15.8156
  42   2.0000      -0.571118       -15.5409
  43   2.0000      -0.571104       -15.5405
  44   2.0000      -0.540574       -14.7098
  45   2.0000      -0.499963       -13.6047
  46   2.0000      -0.499936       -13.6039
  47   2.0000      -0.481448       -13.1009
  48   2.0000      -0.463111       -12.6019
  49   2.0000      -0.463083       -12.6011
  50   2.0000      -0.462522       -12.5859
  51   2.0000      -0.439128       -11.9493
  52   2.0000      -0.439098       -11.9485
  53   2.0000      -0.429759       -11.6943
  54   2.0000      -0.420450       -11.4410
  55   2.0000      -0.420410       -11.4399
  56   2.0000      -0.412692       -11.2299
  57   2.0000      -0.406224       -11.0539
  58   2.0000      -0.406173       -11.0525
  59   2.0000      -0.405170       -11.0252
  60   2.0000      -0.396423       -10.7872
  61   2.0000      -0.396404       -10.7867
  62   2.0000      -0.383600       -10.4383
  63   2.0000      -0.377108       -10.2616
  64   2.0000      -0.377075       -10.2607
  65   2.0000      -0.365787        -9.9536
  66   2.0000      -0.353062        -9.6073
  67   2.0000      -0.352231        -9.5847
  68   2.0000      -0.352144        -9.5823
  69   2.0000      -0.340444        -9.2640
  70   2.0000      -0.340421        -9.2633
  71   2.0000      -0.340402        -9.2628
  72   2.0000      -0.317958        -8.6521
  73   2.0000      -0.317946        -8.6518
  74   2.0000      -0.272603        -7.4179
  75   2.0000      -0.252614        -6.8740
  76   2.0000      -0.252516        -6.8713
  77   2.0000      -0.246080        -6.6962
  78   2.0000      -0.243082        -6.6146
  79   2.0000      -0.243054        -6.6138
  80   2.0000      -0.209567        -5.7026
  81   0.0000      -0.022573        -0.6143
  82   0.0000      -0.022482        -0.6118
  83   0.0000      -0.011708        -0.3186
  84   0.0000      -0.003299        -0.0898
  85   0.0000       0.000001         0.0000

MULLIKEN ATOMIC CHARGES
-----------------------
   0 C :    0.099603
   1 C :   -0.068048
   2 C :   -0.022477
   3 C :    0.033078
   4 C :    0.023624
   5 C :    0.014915
   6 C :   -0.171195
   7 P :    0.283050
   8 C :   -0.171066
   9 C :    0.014380
  10 C :    0.023651
  11 C :    0.033033
  12 C :   -0.022218
  13 C :   -0.067768
  14 C :    0.098912
  15 C :   -0.171404
  16 C :    0.014853
  17 C :    0.023531
  18 C :    0.033005
  19 C :   -0.022313
  20 C :   -0.067718
  21 C :    0.099216
  22 H :    0.029632
  23 H :    0.036867
  24 H :    0.002430
  25 H :   -0.033448
  26 H :   -0.020207
  27 H :   -0.021296
  28 H :    0.002254
  29 H :    0.002345
  30 H :   -0.021315
  31 H :   -0.020226
  32 H :   -0.033487
  33 H :    0.036840
  34 H :    0.002504
  35 H :    0.029875
  36 H :    0.002386
  37 H :   -0.021312
  38 H :   -0.020203
  39 H :   -0.033437
  40 H :    0.036929
  41 H :    0.029722
  42 H :    0.002502
Sum of atomic charges:   -0.0000000

LOEWDIN ATOMIC CHARGES
----------------------
   0 C :   -0.055330
   1 C :   -0.026805
   2 C :   -0.032148
   3 C :   -0.022500
   4 C :   -0.033379
   5 C :   -0.029982
   6 C :   -0.174921
   7 P :    0.526564
   8 C :   -0.174916
   9 C :   -0.030194
  10 C :   -0.033383
  11 C :   -0.022572
  12 C :   -0.032069
  13 C :   -0.026783
  14 C :   -0.055288
  15 C :   -0.174900
  16 C :   -0.030036
  17 C :   -0.033405
  18 C :   -0.022495
  19 C :   -0.032086
  20 C :   -0.026728
  21 C :   -0.055254
  22 H :    0.035992
  23 H :    0.031503
  24 H :    0.026629
  25 H :    0.023475
  26 H :    0.026327
  27 H :    0.026052
  28 H :    0.029644
  29 H :    0.029639
  30 H :    0.026045
  31 H :    0.026321
  32 H :    0.023466
  33 H :    0.031318
  34 H :    0.026653
  35 H :    0.036065
  36 H :    0.029669
  37 H :    0.026049
  38 H :    0.026334
  39 H :    0.023475
  40 H :    0.031245
  41 H :    0.036062
  42 H :    0.026647

  Mayer bond orders larger than 0.100000
B(  0-C ,  1-C ) :   1.1009 B(  0-C , 22-H ) :   0.9378 B(  0-C , 23-H ) :   0.9274
B(  0-C , 24-H ) :   0.9486 B(  1-C ,  2-C ) :   1.4108 B(  1-C ,  6-C ) :   1.3847
B(  2-C ,  3-C ) :   1.3655 B(  2-C , 25-H ) :   0.9817 B(  3-C ,  4-C ) :   1.3709
B(  3-C , 26-H ) :   0.9829 B(  4-C ,  5-C ) :   1.3780 B(  4-C , 27-H ) :   0.9850
B(  5-C ,  6-C ) :   1.3845 B(  5-C , 28-H ) :   0.9745 B(  6-C ,  7-P ) :   0.9447
B(  7-P ,  8-C ) :   0.9444 B(  7-P , 15-C ) :   0.9449 B(  8-C ,  9-C ) :   1.3845
B(  8-C , 13-C ) :   1.3848 B(  9-C , 10-C ) :   1.3781 B(  9-C , 29-H ) :   0.9744
B( 10-C , 11-C ) :   1.3708 B( 10-C , 30-H ) :   0.9849 B( 11-C , 12-C ) :   1.3657
B( 11-C , 31-H ) :   0.9830 B( 12-C , 13-C ) :   1.4108 B( 12-C , 32-H ) :   0.9817
B( 13-C , 14-C ) :   1.1007 B( 14-C , 33-H ) :   0.9274 B( 14-C , 34-H ) :   0.9486
B( 14-C , 35-H ) :   0.9380 B( 15-C , 16-C ) :   1.3837 B( 15-C , 20-C ) :   1.3851
B( 16-C , 17-C ) :   1.3783 B( 16-C , 36-H ) :   0.9745 B( 17-C , 18-C ) :   1.3706
B( 17-C , 37-H ) :   0.9850 B( 18-C , 19-C ) :   1.3660 B( 18-C , 38-H ) :   0.9830
B( 19-C , 20-C ) :   1.4109 B( 19-C , 39-H ) :   0.9816 B( 20-C , 21-C ) :   1.1005
B( 21-C , 40-H ) :   0.9276 B( 21-C , 41-H ) :   0.9380 B( 21-C , 42-H ) :   0.9487

Dispersion correction           -0.110801222
FINAL SINGLE POINT ENERGY     -1153.090751467962

DIPOLE MOMENT
-------------

Method             : SCF
Type of density    : Electron Density
Multiplicity       :   1
Irrep              :   0
Energy             : -1152.9799502458688494 Eh
Relativity type    :
Basis              : AO
                                X                 Y                 Z
Electronic contribution:      0.425059910       0.045300070       3.164753597
Nuclear contribution   :     -0.406754712      -0.045051039      -3.000795765
                        -----------------------------------------
Total Dipole Moment    :      0.018305198       0.000249031       0.163957832
                        -----------------------------------------
Magnitude (a.u.)       :      0.164976704
Magnitude (Debye)      :      0.419337457

Rotational constants in cm-1:             0.009525             0.009522             0.005955
Rotational constants in MHz :           285.566141           285.459450           178.531394

                             ****ORCA TERMINATED NORMALLY****
TOTAL RUN TIME: 0 days 0 hours 14 minutes 37 seconds 694 msec
