                         Program Version 6.0.0  -   RELEASE   -
|  1> ! RIJCOSX M062X def2-TZVP D3ZERO NormalSCF
|  2> %pal
|  3> nprocs 6
|  4> end
|  5>
|  6> * xyz 0 1
|  7>   C           6.00817329035668     -0.05014518225633     -0.29556828097337
|  8>   C           4.92566218719629     -0.60861611903769      0.28899081976846
|  9>   C           3.52206430525716     -0.49406787988684     -0.13727556269009
| 10>   C           2.51742605909672     -1.15456339674567      0.60819508420325
| 11>   C           1.16440266281937     -1.07211729542583      0.25061175617403
| 12>   C           0.76988973300777     -0.32621496803741     -0.87811378422720
| 13>   C           1.77041757865562      0.32315916620678     -1.64083973130615
| 14>   C           3.11576625350475      0.25060110662427     -1.27325854097187
| 15>   P          -0.98015875615548     -0.14285041205942     -1.44589263800139
| 16>   C          -1.84717986675306     -1.30454958207845     -0.29354228414640
| 17>   C          -1.90755546523213     -2.66327711498957     -0.67655414528895
| 18>   C          -2.52720773199632     -3.61137536199749      0.15144870878150
| 19>   C          -3.11429999600329     -3.20982447171090      1.36431288422583
| 20>   C          -3.07207573905653     -1.85823805249020      1.74524870715332
| 21>   C          -2.43935244029255     -0.90980917335175      0.92430654601661
| 22>   C          -1.42114253716231      1.49325989534027     -0.69788066629884
| 23>   C          -2.64290039283412      2.07588036748995     -1.10271590442750
| 24>   C          -3.06135528310804      3.30261474787290     -0.56563656858145
| 25>   C          -2.25316026160312      3.97400377764696      0.36867670097893
| 26>   C          -1.02968269892939      3.40885674384995      0.76543118826553
| 27>   C          -0.61547240445283      2.17381326267672      0.23919581003574
| 28>   H           5.93524009569660      0.57765305656110     -1.19796735906916
| 29>   H           7.01643226538143     -0.20613614526348      0.11626958080607
| 30>   H           5.08191281835267     -1.22600202727300      1.19174644929879
| 31>   H           2.80950988258174     -1.74110905081502      1.49426573017759
| 32>   H           0.40546047516113     -1.58772257363650      0.85758470064043
| 33>   H           1.48040159688083      0.89877050959037     -2.53496250825573
| 34>   H           3.86822024024797      0.77300409134052     -1.88299482217085
| 35>   H          -1.45880346717150     -2.97694749521002     -1.63318374815886
| 36>   H          -2.56123313867598     -4.66814950963031     -0.15572567093726
| 37>   H          -3.60921984014633     -3.95110727917180      2.01045005115666
| 38>   H          -3.53199200689082     -1.53791095518302      2.69313257640009
| 39>   H          -2.40023233095720      0.14575490560231      1.23240010595712
| 40>   H          -3.27095777128103      1.55693087720340     -1.84511440748183
| 41>   H          -4.01881998870013      3.74254463486160     -0.88506116384252
| 42>   H          -2.57563221799101      4.94122843894538      0.78390293051479
| 43>   H          -0.39193083635951      3.93131776096334      1.49544823970748
| 44>   H           0.33938572755591      1.73134170347486      0.56067021656721
| 45> **                         ****END OF INPUT****

CARTESIAN COORDINATES (ANGSTROEM)
---------------------------------
  C      6.008173   -0.050145   -0.295568
  C      4.925662   -0.608616    0.288991
  C      3.522064   -0.494068   -0.137276
  C      2.517426   -1.154563    0.608195
  C      1.164403   -1.072117    0.250612
  C      0.769890   -0.326215   -0.878114
  C      1.770418    0.323159   -1.640840
  C      3.115766    0.250601   -1.273259
  P     -0.980159   -0.142850   -1.445893
  C     -1.847180   -1.304550   -0.293542
  C     -1.907555   -2.663277   -0.676554
  C     -2.527208   -3.611375    0.151449
  C     -3.114300   -3.209824    1.364313
  C     -3.072076   -1.858238    1.745249
  C     -2.439352   -0.909809    0.924307
  C     -1.421143    1.493260   -0.697881
  C     -2.642900    2.075880   -1.102716
  C     -3.061355    3.302615   -0.565637
  C     -2.253160    3.974004    0.368677
  C     -1.029683    3.408857    0.765431
  C     -0.615472    2.173813    0.239196
  H      5.935240    0.577653   -1.197967
  H      7.016432   -0.206136    0.116270
  H      5.081913   -1.226002    1.191746
  H      2.809510   -1.741109    1.494266
  H      0.405460   -1.587723    0.857585
  H      1.480402    0.898771   -2.534963
  H      3.868220    0.773004   -1.882995
  H     -1.458803   -2.976947   -1.633184
  H     -2.561233   -4.668150   -0.155726
  H     -3.609220   -3.951107    2.010450
  H     -3.531992   -1.537911    2.693133
  H     -2.400232    0.145755    1.232400
  H     -3.270958    1.556931   -1.845114
  H     -4.018820    3.742545   -0.885061
  H     -2.575632    4.941228    0.783903
  H     -0.391931    3.931318    1.495448
  H      0.339386    1.731342    0.560670

 Total Charge           Charge          ....    0
 Multiplicity           Mult            ....    1
 Number of Electrons    NEL             ....  152
 Basis Dimension        Dim             ....  759

ORBITAL ENERGIES
----------------

  NO   OCC          E(Eh)            E(eV)
   0   2.0000     -78.032418     -2123.3701
   1   2.0000     -10.561786      -287.4008
   2   2.0000     -10.556031      -287.2442
   3   2.0000     -10.555726      -287.2359
   4   2.0000     -10.555698      -287.2351
   5   2.0000     -10.554802      -287.2108
   6   2.0000     -10.553712      -287.1811
   7   2.0000     -10.553056      -287.1633
   8   2.0000     -10.552992      -287.1615
   9   2.0000     -10.552703      -287.1536
  10   2.0000     -10.552647      -287.1521
  11   2.0000     -10.552338      -287.1437
  12   2.0000     -10.552219      -287.1405
  13   2.0000     -10.551716      -287.1268
  14   2.0000     -10.551657      -287.1252
  15   2.0000     -10.551482      -287.1204
  16   2.0000     -10.551462      -287.1199
  17   2.0000     -10.551234      -287.1137
  18   2.0000     -10.550820      -287.1024
  19   2.0000     -10.550804      -287.1020
  20   2.0000     -10.545296      -286.9521
  21   2.0000      -6.848484      -186.3567
  22   2.0000      -4.963116      -135.0533
  23   2.0000      -4.962702      -135.0420
  24   2.0000      -4.962699      -135.0419
  25   2.0000      -0.966111       -26.2892
  26   2.0000      -0.958218       -26.0744
  27   2.0000      -0.954449       -25.9719
  28   2.0000      -0.893218       -24.3057
  29   2.0000      -0.859327       -23.3835
  30   2.0000      -0.844512       -22.9803
  31   2.0000      -0.842225       -22.9181
  32   2.0000      -0.841778       -22.9059
  33   2.0000      -0.835568       -22.7370
  34   2.0000      -0.819068       -22.2880
  35   2.0000      -0.736891       -20.0518
  36   2.0000      -0.702201       -19.1079
  37   2.0000      -0.689678       -18.7671
  38   2.0000      -0.687866       -18.7178
  39   2.0000      -0.682402       -18.5691
  40   2.0000      -0.675901       -18.3922
  41   2.0000      -0.642633       -17.4869
  42   2.0000      -0.632080       -17.1998
  43   2.0000      -0.589971       -16.0539
  44   2.0000      -0.584138       -15.8952
  45   2.0000      -0.563789       -15.3415
  46   2.0000      -0.539053       -14.6684
  47   2.0000      -0.526145       -14.3171
  48   2.0000      -0.524941       -14.2844
  49   2.0000      -0.517658       -14.0862
  50   2.0000      -0.515980       -14.0405
  51   2.0000      -0.512218       -13.9382
  52   2.0000      -0.499092       -13.5810
  53   2.0000      -0.488322       -13.2879
  54   2.0000      -0.487542       -13.2667
  55   2.0000      -0.486191       -13.2299
  56   2.0000      -0.473737       -12.8910
  57   2.0000      -0.468413       -12.7462
  58   2.0000      -0.449665       -12.2360
  59   2.0000      -0.442160       -12.0318
  60   2.0000      -0.439309       -11.9542
  61   2.0000      -0.433757       -11.8031
  62   2.0000      -0.418547       -11.3892
  63   2.0000      -0.404971       -11.0198
  64   2.0000      -0.404302       -11.0016
  65   2.0000      -0.398445       -10.8422
  66   2.0000      -0.380451       -10.3526
  67   2.0000      -0.378367       -10.2959
  68   2.0000      -0.365900        -9.9566
  69   2.0000      -0.330281        -8.9874
  70   2.0000      -0.317231        -8.6323
  71   2.0000      -0.314584        -8.5603
  72   2.0000      -0.309000        -8.4083
  73   2.0000      -0.307372        -8.3640
  74   2.0000      -0.290931        -7.9166
  75   2.0000      -0.262040        -7.1305
  76   0.0000      -0.024590        -0.6691
  77   0.0000      -0.002445        -0.0665
  78   0.0000      -0.001520        -0.0414
  79   0.0000       0.010356         0.2818
  80   0.0000       0.021837         0.5942

MULLIKEN ATOMIC CHARGES
-----------------------
   0 C :   -0.303688
   1 C :   -0.153489
   2 C :    0.201059
   3 C :   -0.206685
   4 C :   -0.133806
   5 C :   -0.108487
   6 C :   -0.168546
   7 C :   -0.186601
   8 P :    0.125487
   9 C :   -0.090564
  10 C :   -0.151510
  11 C :   -0.142468
  12 C :   -0.137786
  13 C :   -0.160508
  14 C :   -0.133737
  15 C :   -0.101409
  16 C :   -0.141626
  17 C :   -0.146633
  18 C :   -0.135324
  19 C :   -0.161424
  20 C :   -0.135683
  21 H :    0.123135
  22 H :    0.137126
  23 H :    0.126969
  24 H :    0.146528
  25 H :    0.183507
  26 H :    0.154749
  27 H :    0.141551
  28 H :    0.156311
  29 H :    0.146546
  30 H :    0.146020
  31 H :    0.146434
  32 H :    0.184855
  33 H :    0.154705
  34 H :    0.146220
  35 H :    0.146184
  36 H :    0.146677
  37 H :    0.185912
Sum of atomic charges:   -0.0000000

LOEWDIN ATOMIC CHARGES
----------------------
   0 C :   -0.196163
   1 C :   -0.162281
   2 C :   -0.138348
   3 C :   -0.104910
   4 C :   -0.135778
   5 C :   -0.275585
   6 C :   -0.140197
   7 C :   -0.097319
   8 P :    0.700275
   9 C :   -0.276759
  10 C :   -0.143203
  11 C :   -0.143880
  12 C :   -0.141248
  13 C :   -0.142493
  14 C :   -0.136209
  15 C :   -0.276961
  16 C :   -0.142406
  17 C :   -0.143540
  18 C :   -0.141085
  19 C :   -0.142614
  20 C :   -0.137207
  21 H :    0.123303
  22 H :    0.127161
  23 H :    0.151807
  24 H :    0.150829
  25 H :    0.158835
  26 H :    0.151992
  27 H :    0.149972
  28 H :    0.150840
  29 H :    0.147982
  30 H :    0.147140
  31 H :    0.147988
  32 H :    0.158053
  33 H :    0.150675
  34 H :    0.147942
  35 H :    0.147170
  36 H :    0.148081
  37 H :    0.158141

  Mayer bond orders larger than 0.100000
B(  0-C ,  1-C ) :   1.8470 B(  0-C , 21-H ) :   0.9673 B(  0-C , 22-H ) :   0.9709
B(  1-C ,  2-C ) :   1.0008 B(  1-C , 23-H ) :   0.9533 B(  2-C ,  3-C ) :   1.3921
B(  2-C ,  7-C ) :   1.3216 B(  3-C ,  4-C ) :   1.5078 B(  3-C , 24-H ) :   0.9123
B(  4-C ,  5-C ) :   1.3479 B(  4-C , 25-H ) :   0.9241 B(  5-C ,  6-C ) :   1.3710
B(  5-C ,  8-P ) :   0.9355 B(  6-C ,  7-C ) :   1.5390 B(  6-C , 26-H ) :   0.9351
B(  7-C , 27-H ) :   0.9202 B(  8-P ,  9-C ) :   0.9312 B(  8-P , 15-C ) :   0.9341
B(  9-C , 10-C ) :   1.3941 B(  9-C , 14-C ) :   1.3413 B( 10-C , 11-C ) :   1.4602
B( 10-C , 28-H ) :   0.9354 B( 11-C , 12-C ) :   1.4268 B( 11-C , 29-H ) :   0.9474
B( 12-C , 13-C ) :   1.4381 B( 12-C , 30-H ) :   0.9471 B( 13-C , 14-C ) :   1.4613
B( 13-C , 31-H ) :   0.9440 B( 14-C , 32-H ) :   0.9246 B( 15-C , 16-C ) :   1.4007
B( 15-C , 20-C ) :   1.3355 B( 16-C , 17-C ) :   1.4606 B( 16-C , 33-H ) :   0.9346
B( 17-C , 18-C ) :   1.4273 B( 17-C , 34-H ) :   0.9473 B( 18-C , 19-C ) :   1.4378
B( 18-C , 35-H ) :   0.9469 B( 19-C , 20-C ) :   1.4598 B( 19-C , 36-H ) :   0.9441
B( 20-C , 37-H ) :   0.9269

Dispersion correction           -0.002332202
FINAL SINGLE POINT ENERGY     -1113.633346367040

DIPOLE MOMENT
-------------

Method             : SCF
Type of density    : Electron Density
Multiplicity       :   1
Irrep              :   0
Energy             : -1113.6310141649821617 Eh
Relativity type    :
Basis              : AO
                                X                 Y                 Z
Electronic contribution:     -6.535161454      -0.804061607      -5.650992180
Nuclear contribution   :      6.562539520       0.879402477       6.204123181
                        -----------------------------------------
Total Dipole Moment    :      0.027378066       0.075340870       0.553131001
                        -----------------------------------------
Magnitude (a.u.)       :      0.558909393
Magnitude (Debye)      :      1.420634778

Rotational constants in cm-1:             0.011622             0.007082             0.005051
Rotational constants in MHz :           348.414691           212.302982           151.411133

                             ****ORCA TERMINATED NORMALLY****
TOTAL RUN TIME: 0 days 0 hours 2 minutes 23 seconds 615 msec
