                         Program Version 6.0.0  -   RELEASE   -
|  1> ! RI BP86 def2-SVP D3BJ TIGHTSCF Opt
|  2> %pal
|  3> nprocs 6
|  4> end
|  5>
|  6> * xyz 0 1
|  7> C     -1.630027    3.315591   -1.606972
|  8> C     -2.198081    2.225236   -0.715789
|  9> O     -1.628494    0.985196   -1.117554
| 10> Si    -2.065007   -0.400861   -0.307047
| 11> C     -0.585693   -1.566852   -0.147182
| 12> C      0.448006   -1.253752    0.932491
| 13> P      1.431166    0.276048    0.748273
| 14> O      0.532194    1.459172    1.038215
| 15> C      2.758080    0.144699    1.954552
| 16> C      3.751778   -0.840515    1.871511
| 17> C      4.762053   -0.913631    2.833237
| 18> C      4.789284   -0.005939    3.890488
| 19> C      3.807719    0.977464    3.986882
| 20> C      2.799933    1.051681    3.024785
| 21> C      2.157086    0.319160   -0.885462
| 22> C      2.272735    1.553902   -1.540762
| 23> C      2.838899    1.638750   -2.812634
| 24> C      3.297653    0.487576   -3.447618
| 25> C      3.187640   -0.747368   -2.812237
| 26> C      2.620959   -0.831658   -1.538505
| 27> O     -3.271842   -1.151834   -1.188656
| 28> C     -3.172134   -1.164679   -2.608119
| 29> C     -4.312827   -2.003472   -3.156123
| 30> O     -2.682754   -0.026092    1.195156
| 31> C     -3.494461   -0.981304    1.865318
| 32> C     -3.806236   -0.448022    3.252217
| 33> H     -1.837893    3.101693   -2.660769
| 34> H     -2.056988    4.289494   -1.351876
| 35> H     -0.541781    3.370522   -1.500554
| 36> H     -3.289130    2.197737   -0.829712
| 37> H     -1.951258    2.451044    0.329228
| 38> H     -0.100242   -1.623251   -1.126155
| 39> H     -0.990641   -2.565823    0.055381
| 40> H      1.155678   -2.090396    0.970519
| 41> H     -0.032670   -1.212317    1.917855
| 42> H      3.754095   -1.559062    1.057529
| 43> H      5.531172   -1.678453    2.757224
| 44> H      5.575791   -0.063059    4.637875
| 45> H      3.825710    1.688959    4.808892
| 46> H      2.037015    1.825387    3.106712
| 47> H      1.909191    2.457086   -1.052514
| 48> H      2.918445    2.603604   -3.306351
| 49> H      3.738619    0.553252   -4.438792
| 50> H      3.542145   -1.645952   -3.311338
| 51> H      2.539345   -1.807139   -1.067069
| 52> H     -2.218203   -1.601779   -2.927607
| 53> H     -3.252842   -0.145135   -3.005351
| 54> H     -5.278497   -1.595971   -2.838548
| 55> H     -4.256450   -3.027525   -2.772544
| 56> H     -4.284025   -2.033659   -4.249003
| 57> H     -2.972011   -1.941704    1.958300
| 58> H     -4.433017   -1.133399    1.318150
| 59> H     -4.319192    0.517733    3.188631
| 60> H     -2.882497   -0.282344    3.817018
| 61> H     -4.437495   -1.148041    3.806402
| 62> **                         ****END OF INPUT****
 Total Charge           Charge          ....    0
 Multiplicity           Mult            ....    1
 Number of Electrons    NEL             ....  210
Dispersion correction           -0.117352649
FINAL SINGLE POINT ENERGY     -1710.659569731037
Dispersion correction             ... done (  0.1 sec)
Dispersion correction           -0.117955884
FINAL SINGLE POINT ENERGY     -1710.670562835443
Dispersion correction             ... done (  0.1 sec)
Dispersion correction           -0.117118891
FINAL SINGLE POINT ENERGY     -1710.672945189766
Dispersion correction             ... done (  0.1 sec)
FINAL SINGLE POINT ENERGY     -1710.673644722894
FINAL SINGLE POINT ENERGY     -1710.674748963605
FINAL SINGLE POINT ENERGY     -1710.675135508482
FINAL SINGLE POINT ENERGY     -1710.675578503234
FINAL SINGLE POINT ENERGY     -1710.675837750860
FINAL SINGLE POINT ENERGY     -1710.676047516446
FINAL SINGLE POINT ENERGY     -1710.676158811513
FINAL SINGLE POINT ENERGY     -1710.682140231638
FINAL SINGLE POINT ENERGY     -1710.682141413475
FINAL SINGLE POINT ENERGY     -1710.682142780902
FINAL SINGLE POINT ENERGY     -1710.682143725038
FINAL SINGLE POINT ENERGY     -1710.682141150363
FINAL SINGLE POINT ENERGY     -1710.682146726186
FINAL SINGLE POINT ENERGY     -1710.682147303812
Dispersion correction             ... done (  0.1 sec)
Dispersion correction           -0.124790192
FINAL SINGLE POINT ENERGY     -1710.682148460638
Dispersion correction             ... done (  0.1 sec)
Dispersion correction           -0.124710501
FINAL SINGLE POINT ENERGY     -1710.682149969630
Dispersion correction             ... done (  0.1 sec)
                    ***********************HURRAY********************

CARTESIAN COORDINATES (ANGSTROEM)
---------------------------------
  C     -1.570373    2.737812   -2.332281
  C     -1.733760    1.837075   -1.118431
  O     -1.345237    0.504093   -1.473711
  Si    -1.856766   -0.911897   -0.768036
  C     -0.439693   -2.013194   -0.198379
  C      0.444372   -1.627204    0.996006
  P      1.139022    0.080622    0.980808
  O      0.144668    1.184488    1.328499
  C      2.505091    0.029353    2.204350
  C      3.631941   -0.807953    2.076175
  C      4.630732   -0.794063    3.061429
  C      4.509713    0.057345    4.174439
  C      3.391181    0.898216    4.299303
  C      2.388975    0.886961    3.315653
  C      1.925572    0.317096   -0.650730
  C      1.874777    1.612202   -1.201198
  C      2.461855    1.867459   -2.448955
  C      3.097010    0.830901   -3.154226
  C      3.148501   -0.462897   -2.608533
  C      2.564919   -0.721223   -1.358061
  O     -2.538385   -1.852315   -1.973220
  C     -3.406865   -1.335769   -2.978115
  C     -4.812815   -1.062019   -2.449363
  O     -2.989231   -0.536330    0.399721
  C     -3.060256   -0.968548    1.753272
  C     -2.722107    0.170204    2.707026
  H     -2.228443    2.412717   -3.164364
  H     -1.824743    3.786960   -2.075831
  H     -0.524079    2.709916   -2.698416
  H     -2.785681    1.845638   -0.756700
  H     -1.098435    2.168274   -0.270175
  H      0.181292   -2.128883   -1.112384
  H     -0.881586   -3.017789   -0.021574
  H      1.296787   -2.331382    1.112385
  H     -0.111134   -1.664881    1.957383
  H      3.742871   -1.464066    1.198814
  H      5.511143   -1.446877    2.959020
  H      5.295540    0.067464    4.945353
  H      3.299656    1.569305    5.167211
  H      1.505984    1.541431    3.381431
  H      1.357336    2.405417   -0.641302
  H      2.418252    2.880201   -2.878078
  H      3.551088    1.030670   -4.136849
  H      3.639880   -1.277143   -3.162647
  H      2.601623   -1.741492   -0.945480
  H     -3.443210   -2.091586   -3.792930
  H     -2.971713   -0.405914   -3.413094
  H     -4.794313   -0.290914   -1.652669
  H     -5.251952   -1.982798   -2.014362
  H     -5.477126   -0.708441   -3.265271
  H     -2.377803   -1.834612    1.928419
  H     -4.091818   -1.345388    1.935421
  H     -3.434112    1.009100    2.569075
  H     -1.701448    0.554312    2.502116
  H     -2.786693   -0.169654    3.762053

 Multiplicity           Mult            ....    1
 Number of Electrons    NEL             ....  210
 Basis Dimension        Dim             ....  517

ORBITAL ENERGIES
----------------

  NO   OCC          E(Eh)            E(eV)
   0   2.0000     -76.420740     -2079.5141
   1   2.0000     -65.496172     -1782.2415
   2   2.0000     -18.761709      -510.5320
   3   2.0000     -18.756472      -510.3896
   4   2.0000     -18.754776      -510.3434
   5   2.0000     -18.728233      -509.6211
   6   2.0000      -9.957815      -270.9659
   7   2.0000      -9.949649      -270.7437
   8   2.0000      -9.938725      -270.4465
   9   2.0000      -9.937712      -270.4189
  10   2.0000      -9.936910      -270.3971
  11   2.0000      -9.936554      -270.3874
  12   2.0000      -9.932843      -270.2864
  13   2.0000      -9.932641      -270.2809
  14   2.0000      -9.932120      -270.2667
  15   2.0000      -9.931730      -270.2561
  16   2.0000      -9.931438      -270.2482
  17   2.0000      -9.931044      -270.2374
  18   2.0000      -9.930375      -270.2192
  19   2.0000      -9.929881      -270.2058
  20   2.0000      -9.929671      -270.2001
  21   2.0000      -9.929351      -270.1914
  22   2.0000      -9.913704      -269.7656
  23   2.0000      -9.896115      -269.2870
  24   2.0000      -9.894256      -269.2364
  25   2.0000      -9.889376      -269.1036
  26   2.0000      -6.379185      -173.5864
  27   2.0000      -5.094712      -138.6342
  28   2.0000      -4.600443      -125.1844
  29   2.0000      -4.600406      -125.1834
  30   2.0000      -4.600085      -125.1747
  31   2.0000      -3.511060       -95.5408
  32   2.0000      -3.510491       -95.5253
  33   2.0000      -3.507885       -95.4544
  34   2.0000      -0.910136       -24.7660
  35   2.0000      -0.888111       -24.1667
  36   2.0000      -0.881463       -23.9858
  37   2.0000      -0.860492       -23.4152
  38   2.0000      -0.783054       -21.3080
  39   2.0000      -0.780597       -21.2411
  40   2.0000      -0.711241       -19.3538
  41   2.0000      -0.684655       -18.6304
  42   2.0000      -0.680256       -18.5107
  43   2.0000      -0.679593       -18.4927
  44   2.0000      -0.678056       -18.4508
  45   2.0000      -0.661295       -17.9948
  46   2.0000      -0.654020       -17.7968
  47   2.0000      -0.651425       -17.7262
  48   2.0000      -0.597672       -16.2635
  49   2.0000      -0.562121       -15.2961
  50   2.0000      -0.554218       -15.0810
  51   2.0000      -0.551322       -15.0022
  52   2.0000      -0.545959       -14.8563
  53   2.0000      -0.542805       -14.7705
  54   2.0000      -0.533327       -14.5126
  55   2.0000      -0.530022       -14.4226
  56   2.0000      -0.502465       -13.6728
  57   2.0000      -0.476924       -12.9778
  58   2.0000      -0.465690       -12.6721
  59   2.0000      -0.455881       -12.4052
  60   2.0000      -0.435707       -11.8562
  61   2.0000      -0.424895       -11.5620
  62   2.0000      -0.421220       -11.4620
  63   2.0000      -0.418219       -11.3803
  64   2.0000      -0.415636       -11.3100
  65   2.0000      -0.411590       -11.1999
  66   2.0000      -0.409172       -11.1341
  67   2.0000      -0.401309       -10.9202
  68   2.0000      -0.399895       -10.8817
  69   2.0000      -0.395262       -10.7556
  70   2.0000      -0.391506       -10.6534
  71   2.0000      -0.385219       -10.4823
  72   2.0000      -0.383018       -10.4224
  73   2.0000      -0.378066       -10.2877
  74   2.0000      -0.364710        -9.9243
  75   2.0000      -0.362538        -9.8652
  76   2.0000      -0.358871        -9.7654
  77   2.0000      -0.348759        -9.4902
  78   2.0000      -0.343346        -9.3429
  79   2.0000      -0.341228        -9.2853
  80   2.0000      -0.339456        -9.2371
  81   2.0000      -0.331420        -9.0184
  82   2.0000      -0.324626        -8.8335
  83   2.0000      -0.323787        -8.8107
  84   2.0000      -0.321601        -8.7512
  85   2.0000      -0.319915        -8.7053
  86   2.0000      -0.314051        -8.5458
  87   2.0000      -0.313756        -8.5377
  88   2.0000      -0.310934        -8.4609
  89   2.0000      -0.308845        -8.4041
  90   2.0000      -0.305018        -8.3000
  91   2.0000      -0.300003        -8.1635
  92   2.0000      -0.286842        -7.8054
  93   2.0000      -0.256520        -6.9803
  94   2.0000      -0.255240        -6.9454
  95   2.0000      -0.249566        -6.7910
  96   2.0000      -0.246586        -6.7100
  97   2.0000      -0.243746        -6.6327
  98   2.0000      -0.240619        -6.5476
  99   2.0000      -0.237494        -6.4625
 100   2.0000      -0.235251        -6.4015
 101   2.0000      -0.231166        -6.2903
 102   2.0000      -0.226563        -6.1651
 103   2.0000      -0.216738        -5.8978
 104   2.0000      -0.211212        -5.7474
 105   0.0000      -0.074179        -2.0185
 106   0.0000      -0.059726        -1.6252
 107   0.0000      -0.054253        -1.4763
 108   0.0000      -0.051498        -1.4013
 109   0.0000       0.009582         0.2607

MULLIKEN ATOMIC CHARGES
-----------------------
   0 C :   -0.065174
   1 C :    0.142123
   2 O :   -0.450569
   3 Si:    0.779840
   4 C :   -0.219242
   5 C :   -0.115948
   6 P :    0.556021
   7 O :   -0.444869
   8 C :   -0.096048
   9 C :   -0.006696
  10 C :   -0.000423
  11 C :    0.008521
  12 C :    0.003697
  13 C :   -0.006964
  14 C :   -0.100685
  15 C :    0.020057
  16 C :    0.006932
  17 C :    0.009045
  18 C :    0.001476
  19 C :   -0.019715
  20 O :   -0.426610
  21 C :    0.142183
  22 C :   -0.086258
  23 O :   -0.443158
  24 C :    0.141774
  25 C :   -0.083877
  26 H :    0.028155
  27 H :    0.022843
  28 H :    0.027549
  29 H :    0.019363
  30 H :    0.041715
  31 H :    0.065044
  32 H :    0.067844
  33 H :    0.042171
  34 H :    0.069693
  35 H :   -0.005774
  36 H :    0.006494
  37 H :    0.010440
  38 H :    0.011165
  39 H :    0.024254
  40 H :    0.018698
  41 H :    0.012622
  42 H :    0.010057
  43 H :    0.005766
  44 H :    0.005059
  45 H :    0.015683
  46 H :    0.022454
  47 H :    0.048637
  48 H :    0.035664
  49 H :    0.023569
  50 H :   -0.000073
  51 H :    0.020331
  52 H :    0.033878
  53 H :    0.055362
  54 H :    0.015901
Sum of atomic charges:   -0.0000000

LOEWDIN ATOMIC CHARGES
----------------------
   0 C :   -0.088009
   1 C :    0.065031
   2 O :   -0.236150
   3 Si:    0.548766
   4 C :   -0.224262
   5 C :   -0.188148
   6 P :    0.890766
   7 O :   -0.472608
   8 C :   -0.183236
   9 C :   -0.032834
  10 C :   -0.028424
  11 C :   -0.020709
  12 C :   -0.026431
  13 C :   -0.019022
  14 C :   -0.178301
  15 C :   -0.006628
  16 C :   -0.023817
  17 C :   -0.018392
  18 C :   -0.027332
  19 C :   -0.036851
  20 O :   -0.241665
  21 C :    0.060293
  22 C :   -0.092960
  23 O :   -0.234644
  24 C :    0.067594
  25 C :   -0.097099
  26 H :    0.025455
  27 H :    0.030916
  28 H :    0.026831
  29 H :    0.011210
  30 H :    0.011625
  31 H :    0.047632
  32 H :    0.049816
  33 H :    0.032858
  34 H :    0.042806
  35 H :    0.027877
  36 H :    0.034804
  37 H :    0.035304
  38 H :    0.036091
  39 H :    0.038034
  40 H :    0.037588
  41 H :    0.035807
  42 H :    0.035632
  43 H :    0.035084
  44 H :    0.027095
  45 H :    0.017024
  46 H :    0.010665
  47 H :    0.030551
  48 H :    0.029847
  49 H :    0.030071
  50 H :    0.004032
  51 H :    0.016435
  52 H :    0.030575
  53 H :    0.026476
  54 H :    0.026931

  Mayer bond orders larger than 0.100000
B(  0-C ,  1-C ) :   1.1143 B(  0-C , 26-H ) :   0.9617 B(  0-C , 27-H ) :   0.9535
B(  0-C , 28-H ) :   0.9596 B(  1-C ,  2-O ) :   0.9297 B(  1-C , 29-H ) :   0.9336
B(  1-C , 30-H ) :   0.9240 B(  2-O ,  3-Si) :   1.1051 B(  3-Si,  4-C ) :   0.9285
B(  3-Si, 20-O ) :   1.1351 B(  3-Si, 23-O ) :   1.0816 B(  4-C ,  5-C ) :   1.0754
B(  4-C , 31-H ) :   0.9178 B(  4-C , 32-H ) :   0.9194 B(  5-C ,  6-P ) :   0.9514
B(  5-C , 33-H ) :   0.8981 B(  5-C , 34-H ) :   0.9155 B(  6-P ,  7-O ) :   1.7498
B(  6-P ,  8-C ) :   0.8650 B(  6-P , 14-C ) :   0.8704 B(  8-C ,  9-C ) :   1.3512
B(  8-C , 13-C ) :   1.3964 B(  9-C , 10-C ) :   1.4072 B(  9-C , 35-H ) :   0.9663
B( 10-C , 11-C ) :   1.3760 B( 10-C , 36-H ) :   0.9744 B( 11-C , 12-C ) :   1.3858
B( 11-C , 37-H ) :   0.9758 B( 12-C , 13-C ) :   1.3617 B( 12-C , 38-H ) :   0.9784
B( 13-C , 39-H ) :   0.9713 B( 14-C , 15-C ) :   1.3934 B( 14-C , 19-C ) :   1.3604
B( 15-C , 16-C ) :   1.3734 B( 15-C , 40-H ) :   0.9673 B( 16-C , 17-C ) :   1.3788
B( 16-C , 41-H ) :   0.9753 B( 17-C , 18-C ) :   1.3813 B( 17-C , 42-H ) :   0.9764
B( 18-C , 19-C ) :   1.4007 B( 18-C , 43-H ) :   0.9748 B( 19-C , 44-H ) :   0.9590
B( 20-O , 21-C ) :   0.9779 B( 21-C , 22-C ) :   1.1117 B( 21-C , 45-H ) :   0.9452
B( 21-C , 46-H ) :   0.9383 B( 22-C , 47-H ) :   0.9593 B( 22-C , 48-H ) :   0.9614
B( 22-C , 49-H ) :   0.9525 B( 23-O , 24-C ) :   0.9723 B( 24-C , 25-C ) :   1.1137
B( 24-C , 50-H ) :   0.9353 B( 24-C , 51-H ) :   0.9417 B( 25-C , 52-H ) :   0.9595
B( 25-C , 53-H ) :   0.9371 B( 25-C , 54-H ) :   0.9496

Dispersion correction           -0.124711742
FINAL SINGLE POINT ENERGY     -1710.682150313930

DIPOLE MOMENT
-------------

Method             : SCF
Type of density    : Electron Density
Multiplicity       :   1
Irrep              :   0
Energy             : -1710.5574385715653989 Eh
Relativity type    :
Basis              : AO
                                X                 Y                 Z
Electronic contribution:     18.997671834      -1.717473504       5.306963360
Nuclear contribution   :    -17.735727188       1.170405635      -5.147238632
                        -----------------------------------------
Total Dipole Moment    :      1.261944646      -0.547067869       0.159724728
                        -----------------------------------------
Magnitude (a.u.)       :      1.384665856
Magnitude (Debye)      :      3.519540904

Rotational constants in cm-1:             0.008714             0.004344             0.003559
Rotational constants in MHz :           261.254091           130.219108           106.693109

                             ****ORCA TERMINATED NORMALLY****
TOTAL RUN TIME: 0 days 0 hours 29 minutes 54 seconds 738 msec
