                         Program Version 6.0.0  -   RELEASE   -
|  1> ! RI BP86 def2-SVP D3BJ TIGHTSCF Opt
|  2> %pal
|  3> nprocs 6
|  4> end
|  5>
|  6> * xyz 0 1
|  7> C     -0.282006    1.590062    1.757346
|  8> C     -0.518453    1.760599    0.250647
|  9> C      0.449281    2.869138   -0.242495
| 10> C     -1.946174    2.291638    0.027055
| 11> P     -0.197593    0.250440   -0.786035
| 12> C      1.427919   -0.368711   -0.299506
| 13> C      2.475281   -0.236849   -1.227049
| 14> C      3.764166   -0.693828   -0.937263
| 15> C      4.029435   -1.293487    0.289065
| 16> C      3.006232   -1.433865    1.221442
| 17> C      1.717511   -0.975312    0.927166
| 18> C     -1.451988   -1.093082   -0.535420
| 19> C     -1.945547   -1.301741    0.897861
| 20> C     -2.680192   -0.786155   -1.427375
| 21> C     -0.878143   -2.437890   -1.046638
| 22> H      0.768721    1.389515    1.989776
| 23> H     -0.878943    0.789023    2.196258
| 24> H     -0.544034    2.509122    2.296525
| 25> H      0.278630    3.808638    0.297300
| 26> H      1.499918    2.597376   -0.085751
| 27> H      0.316819    3.080262   -1.310921
| 28> H     -2.080140    3.271195    0.502480
| 29> H     -2.175726    2.416730   -1.037804
| 30> H     -2.702885    1.632806    0.461715
| 31> H      2.296531    0.226858   -2.195819
| 32> H      4.556596   -0.580121   -1.672034
| 33> H      5.029977   -1.649872    0.517754
| 34> H      3.207565   -1.900039    2.182402
| 35> H      0.951874   -1.097453    1.685068
| 36> H     -1.136850   -1.537420    1.592625
| 37> H     -2.651827   -2.140211    0.946652
| 38> H     -2.481531   -0.430300    1.282629
| 39> H     -2.398366   -0.661999   -2.480384
| 40> H     -3.410881   -1.603253   -1.383243
| 41> H     -3.206527    0.121293   -1.119249
| 42> H     -0.055646   -2.800603   -0.421074
| 43> H     -1.645885   -3.221465   -1.037677
| 44> H     -0.507120   -2.361038   -2.076030
| 45> **                         ****END OF INPUT****
 Total Charge           Charge          ....    0
 Multiplicity           Mult            ....    1
 Number of Electrons    NEL             ....  122
Dispersion correction           -0.080813952
FINAL SINGLE POINT ENERGY      -888.275855852125
Dispersion correction             ... done (  0.1 sec)
Dispersion correction           -0.081662936
FINAL SINGLE POINT ENERGY      -888.285304654866
Dispersion correction             ... done (  0.1 sec)
Dispersion correction           -0.080728116
FINAL SINGLE POINT ENERGY      -888.286995788135
Dispersion correction             ... done (  0.1 sec)
FINAL SINGLE POINT ENERGY      -888.287524794654
FINAL SINGLE POINT ENERGY      -888.287837642756
FINAL SINGLE POINT ENERGY      -888.288244847077
FINAL SINGLE POINT ENERGY      -888.288332827783
FINAL SINGLE POINT ENERGY      -888.288477749946
FINAL SINGLE POINT ENERGY      -888.288483448212
Dispersion correction             ... done (  0.1 sec)
Dispersion correction           -0.081055386
FINAL SINGLE POINT ENERGY      -888.288480635162
Dispersion correction             ... done (  0.1 sec)
Dispersion correction           -0.081070712
FINAL SINGLE POINT ENERGY      -888.288491964335
Dispersion correction             ... done (  0.1 sec)
                    ***********************HURRAY********************

CARTESIAN COORDINATES (ANGSTROEM)
---------------------------------
  C     -0.210370    1.548270    1.725588
  C     -0.496384    1.779272    0.234197
  C      0.498117    2.830535   -0.304704
  C     -1.932264    2.300558    0.037901
  P     -0.244253    0.274750   -0.941851
  C      1.392312   -0.368838   -0.343166
  C      2.488251   -0.148304   -1.208211
  C      3.784406   -0.567084   -0.863880
  C      4.006691   -1.233185    0.351681
  C      2.927214   -1.471023    1.219968
  C      1.636433   -1.037753    0.878936
  C     -1.505224   -1.120816   -0.524237
  C     -1.953023   -1.298850    0.935142
  C     -2.744631   -0.815190   -1.396029
  C     -0.863527   -2.425956   -1.038721
  H      0.838871    1.237338    1.895117
  H     -0.874251    0.785983    2.173918
  H     -0.368143    2.496999    2.284911
  H      0.398932    3.774354    0.274645
  H      1.547619    2.484717   -0.207463
  H      0.310062    3.060078   -1.373210
  H     -2.043482    3.291648    0.529224
  H     -2.177905    2.428113   -1.036759
  H     -2.687542    1.625186    0.487376
  H      2.309131    0.357824   -2.170395
  H      4.622172   -0.379786   -1.553403
  H      5.019074   -1.570400    0.622644
  H      3.092322   -1.994264    2.174767
  H      0.810454   -1.225155    1.578317
  H     -1.112329   -1.533652    1.615853
  H     -2.671609   -2.145634    1.002099
  H     -2.471196   -0.401090    1.325205
  H     -2.467144   -0.703648   -2.463523
  H     -3.477906   -1.647094   -1.313758
  H     -3.257972    0.114294   -1.081796
  H     -0.017533   -2.755130   -0.404704
  H     -1.623681   -3.237062   -1.046991
  H     -0.481692   -2.310004   -2.074689

 Multiplicity           Mult            ....    1
 Number of Electrons    NEL             ....  122
 Basis Dimension        Dim             ....  329

ORBITAL ENERGIES
----------------

  NO   OCC          E(Eh)            E(eV)
   0   2.0000     -76.328539     -2077.0051
   1   2.0000      -9.931838      -270.2590
   2   2.0000      -9.931003      -270.2363
   3   2.0000      -9.922745      -270.0116
   4   2.0000      -9.922696      -270.0103
   5   2.0000      -9.922143      -269.9952
   6   2.0000      -9.921736      -269.9842
   7   2.0000      -9.921042      -269.9653
   8   2.0000      -9.920286      -269.9447
   9   2.0000      -9.910910      -269.6896
  10   2.0000      -9.909710      -269.6569
  11   2.0000      -9.905964      -269.5550
  12   2.0000      -9.905776      -269.5499
  13   2.0000      -9.904792      -269.5231
  14   2.0000      -9.903886      -269.4985
  15   2.0000      -6.296538      -171.3375
  16   2.0000      -4.518301      -122.9492
  17   2.0000      -4.517761      -122.9345
  18   2.0000      -4.514239      -122.8387
  19   2.0000      -0.771564       -20.9953
  20   2.0000      -0.737683       -20.0734
  21   2.0000      -0.722061       -19.6483
  22   2.0000      -0.672606       -18.3025
  23   2.0000      -0.669118       -18.2076
  24   2.0000      -0.615983       -16.7617
  25   2.0000      -0.613131       -16.6842
  26   2.0000      -0.606452       -16.5024
  27   2.0000      -0.606032       -16.4910
  28   2.0000      -0.570606       -15.5270
  29   2.0000      -0.540208       -14.6998
  30   2.0000      -0.521806       -14.1991
  31   2.0000      -0.484356       -13.1800
  32   2.0000      -0.472564       -12.8591
  33   2.0000      -0.443571       -12.0702
  34   2.0000      -0.412490       -11.2244
  35   2.0000      -0.408593       -11.1184
  36   2.0000      -0.403623       -10.9831
  37   2.0000      -0.398815       -10.8523
  38   2.0000      -0.390534       -10.6270
  39   2.0000      -0.386722       -10.5232
  40   2.0000      -0.380489       -10.3536
  41   2.0000      -0.376496       -10.2450
  42   2.0000      -0.369387       -10.0515
  43   2.0000      -0.350388        -9.5345
  44   2.0000      -0.343280        -9.3411
  45   2.0000      -0.338983        -9.2242
  46   2.0000      -0.332447        -9.0463
  47   2.0000      -0.331424        -9.0185
  48   2.0000      -0.328645        -8.9429
  49   2.0000      -0.319627        -8.6975
  50   2.0000      -0.318373        -8.6634
  51   2.0000      -0.304789        -8.2937
  52   2.0000      -0.302305        -8.2262
  53   2.0000      -0.295458        -8.0398
  54   2.0000      -0.290462        -7.9039
  55   2.0000      -0.287043        -7.8108
  56   2.0000      -0.263604        -7.1730
  57   2.0000      -0.254067        -6.9135
  58   2.0000      -0.231907        -6.3105
  59   2.0000      -0.226619        -6.1666
  60   2.0000      -0.186178        -5.0662
  61   0.0000      -0.054610        -1.4860
  62   0.0000      -0.044455        -1.2097
  63   0.0000       0.019242         0.5236
  64   0.0000       0.026331         0.7165
  65   0.0000       0.037940         1.0324

MULLIKEN ATOMIC CHARGES
-----------------------
   0 C :    0.042909
   1 C :   -0.408356
   2 C :    0.025998
   3 C :    0.025555
   4 P :    0.242837
   5 C :   -0.126841
   6 C :    0.012549
   7 C :    0.003408
   8 C :    0.000146
   9 C :    0.002661
  10 C :   -0.000836
  11 C :   -0.417974
  12 C :    0.045616
  13 C :    0.038821
  14 C :    0.032168
  15 H :    0.040027
  16 H :    0.008602
  17 H :    0.016433
  18 H :    0.021648
  19 H :    0.037711
  20 H :    0.032300
  21 H :    0.021046
  22 H :    0.037641
  23 H :    0.033259
  24 H :    0.001425
  25 H :    0.003456
  26 H :    0.004376
  27 H :   -0.001508
  28 H :   -0.010521
  29 H :    0.024191
  30 H :    0.016643
  31 H :    0.033149
  32 H :    0.033048
  33 H :    0.020261
  34 H :    0.018047
  35 H :    0.034962
  36 H :    0.021483
  37 H :    0.033659
Sum of atomic charges:   -0.0000000

LOEWDIN ATOMIC CHARGES
----------------------
   0 C :   -0.069196
   1 C :   -0.171203
   2 C :   -0.071102
   3 C :   -0.069230
   4 P :    0.481138
   5 C :   -0.171491
   6 C :   -0.034323
   7 C :   -0.033653
   8 C :   -0.028365
   9 C :   -0.034596
  10 C :   -0.036255
  11 C :   -0.178034
  12 C :   -0.065922
  13 C :   -0.071125
  14 C :   -0.068175
  15 H :    0.029922
  16 H :    0.023348
  17 H :    0.026470
  18 H :    0.025769
  19 H :    0.028499
  20 H :    0.025909
  21 H :    0.027990
  22 H :    0.027532
  23 H :    0.022045
  24 H :    0.028302
  25 H :    0.033100
  26 H :    0.032705
  27 H :    0.032210
  28 H :    0.025344
  29 H :    0.021898
  30 H :    0.027791
  31 H :    0.023490
  32 H :    0.027270
  33 H :    0.024848
  34 H :    0.023928
  35 H :    0.028148
  36 H :    0.026080
  37 H :    0.028934

  Mayer bond orders larger than 0.100000
B(  0-C ,  1-C ) :   1.0268 B(  0-C , 15-H ) :   0.9476 B(  0-C , 16-H ) :   0.9537
B(  0-C , 17-H ) :   0.9457 B(  1-C ,  2-C ) :   1.0194 B(  1-C ,  3-C ) :   1.0349
B(  1-C ,  4-P ) :   0.9296 B(  2-C , 18-H ) :   0.9502 B(  2-C , 19-H ) :   0.9581
B(  2-C , 20-H ) :   0.9557 B(  3-C , 21-H ) :   0.9468 B(  3-C , 22-H ) :   0.9514
B(  3-C , 23-H ) :   0.9518 B(  4-P ,  5-C ) :   0.9367 B(  4-P , 11-C ) :   0.9166
B(  5-C ,  6-C ) :   1.3796 B(  5-C , 10-C ) :   1.3478 B(  6-C ,  7-C ) :   1.3817
B(  6-C , 24-H ) :   0.9684 B(  7-C ,  8-C ) :   1.3828 B(  7-C , 25-H ) :   0.9767
B(  8-C ,  9-C ) :   1.3691 B(  8-C , 26-H ) :   0.9760 B(  9-C , 10-C ) :   1.4025
B(  9-C , 27-H ) :   0.9746 B( 10-C , 28-H ) :   0.9624 B( 11-C , 12-C ) :   1.0239
B( 11-C , 13-C ) :   1.0238 B( 11-C , 14-C ) :   1.0341 B( 12-C , 29-H ) :   0.9540
B( 12-C , 30-H ) :   0.9383 B( 12-C , 31-H ) :   0.9485 B( 13-C , 32-H ) :   0.9558
B( 13-C , 33-H ) :   0.9518 B( 13-C , 34-H ) :   0.9563 B( 14-C , 35-H ) :   0.9528
B( 14-C , 36-H ) :   0.9514 B( 14-C , 37-H ) :   0.9534

Dispersion correction           -0.081071968
FINAL SINGLE POINT ENERGY      -888.288492629529

DIPOLE MOMENT
-------------

Method             : SCF
Type of density    : Electron Density
Multiplicity       :   1
Irrep              :   0
Energy             :  -888.2074206617182881 Eh
Relativity type    :
Basis              : AO
                                X                 Y                 Z
Electronic contribution:     12.671131663      -2.809884007      -4.516787452
Nuclear contribution   :    -12.660031139       2.710215394       4.930978371
                        -----------------------------------------
Total Dipole Moment    :      0.011100524      -0.099668612       0.414190919
                        -----------------------------------------
Magnitude (a.u.)       :      0.426158622
Magnitude (Debye)      :      1.083209133

Rotational constants in cm-1:             0.024384             0.014368             0.011653
Rotational constants in MHz :           731.025966           430.727731           349.348962

                             ****ORCA TERMINATED NORMALLY****
TOTAL RUN TIME: 0 days 0 hours 3 minutes 11 seconds 233 msec
