                         Program Version 6.0.0  -   RELEASE   -
|  1> ! RI BP86 def2-SVP D3BJ TIGHTSCF Opt
|  2> %pal
|  3> nprocs 6
|  4> end
|  5>
|  6> * xyz 0 1
|  7> C     -0.994920   -2.858200    0.137727
|  8> C      0.166571   -1.897042   -0.194472
|  9> C      0.183145   -1.687688   -1.713031
| 10> C      1.484225   -2.570094    0.232790
| 11> P     -0.061281   -0.310316    0.796439
| 12> O     -0.221903   -0.755843    2.242321
| 13> C      1.377823    0.752785    0.614723
| 14> C      1.904270    1.166676   -0.614848
| 15> C      3.032396    1.990904   -0.674710
| 16> C      3.652961    2.416020    0.496381
| 17> C      3.145551    2.019062    1.728739
| 18> C      2.019203    1.196402    1.785010
| 19> C     -1.548822    0.511806    0.211047
| 20> C     -1.579478    1.371369   -0.893817
| 21> C     -2.773646    1.974817   -1.299203
| 22> C     -3.954542    1.730779   -0.603014
| 23> C     -3.943133    0.886020    0.502132
| 24> C     -2.750054    0.284750    0.905259
| 25> H     -1.052352   -3.052959    1.213550
| 26> H     -1.955603   -2.434252   -0.170927
| 27> H     -0.875516   -3.821702   -0.370165
| 28> H      0.182203   -2.647669   -2.242732
| 29> H      1.077217   -1.154210   -2.039845
| 30> H     -0.691343   -1.125569   -2.050683
| 31> H      2.344881   -1.935975   -0.002276
| 32> H      1.498924   -2.751648    1.312636
| 33> H      1.626438   -3.530448   -0.274741
| 34> H      1.447861    0.866524   -1.550581
| 35> H      3.426791    2.303076   -1.638735
| 36> H      4.529474    3.056735    0.449113
| 37> H      3.623198    2.347162    2.648400
| 38> H      1.634369    0.893136    2.758616
| 39> H     -0.681368    1.591385   -1.458639
| 40> H     -2.780605    2.641226   -2.158348
| 41> H     -4.881220    2.203516   -0.917482
| 42> H     -4.859547    0.697366    1.055378
| 43> H     -2.752170   -0.367900    1.777986
| 44> **                         ****END OF INPUT****
 Total Charge           Charge          ....    0
 Multiplicity           Mult            ....    1
 Number of Electrons    NEL             ....  138
Dispersion correction           -0.085176811
FINAL SINGLE POINT ENERGY     -1037.245427404513
Dispersion correction             ... done (  0.1 sec)
Dispersion correction           -0.085537828
FINAL SINGLE POINT ENERGY     -1037.253518509241
Dispersion correction             ... done (  0.1 sec)
Dispersion correction           -0.085475217
FINAL SINGLE POINT ENERGY     -1037.254993420795
Dispersion correction             ... done (  0.1 sec)
FINAL SINGLE POINT ENERGY     -1037.255109231442
FINAL SINGLE POINT ENERGY     -1037.255372893401
FINAL SINGLE POINT ENERGY     -1037.255418147117
FINAL SINGLE POINT ENERGY     -1037.255428579019
FINAL SINGLE POINT ENERGY     -1037.255435691659
FINAL SINGLE POINT ENERGY     -1037.255439645538
FINAL SINGLE POINT ENERGY     -1037.255442602582
Dispersion correction             ... done (  0.1 sec)
Dispersion correction           -0.085191457
FINAL SINGLE POINT ENERGY     -1037.255444369776
Dispersion correction             ... done (  0.1 sec)
Dispersion correction           -0.085189911
FINAL SINGLE POINT ENERGY     -1037.255445059136
Dispersion correction             ... done (  0.1 sec)
                    ***********************HURRAY********************

CARTESIAN COORDINATES (ANGSTROEM)
---------------------------------
  C     -1.029849   -2.803507    0.056563
  C      0.191970   -1.909105   -0.232060
  C      0.313734   -1.631656   -1.736435
  C      1.477379   -2.558339    0.315671
  P     -0.075616   -0.368904    0.818356
  O     -0.254137   -0.744944    2.285444
  C      1.370583    0.742059    0.597810
  C      1.808429    1.308370   -0.618324
  C      2.941474    2.136863   -0.642976
  C      3.645859    2.405940    0.543006
  C      3.213186    1.845903    1.756576
  C      2.080576    1.017790    1.785488
  C     -1.565311    0.492024    0.174805
  C     -1.660637    1.156726   -1.065536
  C     -2.869236    1.757439   -1.452025
  C     -3.988951    1.699828   -0.604525
  C     -3.895741    1.047162    0.636150
  C     -2.688552    0.447652    1.027269
  H     -1.150826   -2.960888    1.146087
  H     -1.965219   -2.352721   -0.333925
  H     -0.895438   -3.791098   -0.433164
  H      0.420405   -2.595256   -2.279480
  H      1.207589   -1.023090   -1.977664
  H     -0.586015   -1.125335   -2.139503
  H      2.369205   -1.932360    0.108203
  H      1.404758   -2.704381    1.411448
  H      1.634416   -3.548132   -0.163011
  H      1.273595    1.111414   -1.557695
  H      3.275928    2.575552   -1.595606
  H      4.534030    3.056009    0.519706
  H      3.760732    2.056746    2.688163
  H      1.714040    0.567194    2.721160
  H     -0.792342    1.224517   -1.735578
  H     -2.935537    2.277305   -2.420096
  H     -4.935272    2.171627   -0.910863
  H     -4.768177    1.008920    1.306582
  H     -2.581034   -0.057323    1.999978

 Multiplicity           Mult            ....    1
 Number of Electrons    NEL             ....  138
 Basis Dimension        Dim             ....  351

ORBITAL ENERGIES
----------------

  NO   OCC          E(Eh)            E(eV)
   0   2.0000     -76.410495     -2079.2353
   1   2.0000     -18.714384      -509.2443
   2   2.0000      -9.936652      -270.3901
   3   2.0000      -9.935015      -270.3455
   4   2.0000      -9.934122      -270.3212
   5   2.0000      -9.930346      -270.2184
   6   2.0000      -9.930178      -270.2139
   7   2.0000      -9.929980      -270.2085
   8   2.0000      -9.929727      -270.2016
   9   2.0000      -9.929632      -270.1990
  10   2.0000      -9.928908      -270.1793
  11   2.0000      -9.927280      -270.1350
  12   2.0000      -9.927110      -270.1304
  13   2.0000      -9.925734      -270.0930
  14   2.0000      -9.925529      -270.0874
  15   2.0000      -9.917922      -269.8804
  16   2.0000      -9.909449      -269.6498
  17   2.0000      -9.908804      -269.6323
  18   2.0000      -6.368860      -173.3055
  19   2.0000      -4.590352      -124.9098
  20   2.0000      -4.590105      -124.9031
  21   2.0000      -4.589471      -124.8859
  22   2.0000      -0.848919       -23.1003
  23   2.0000      -0.779395       -21.2084
  24   2.0000      -0.777818       -21.1655
  25   2.0000      -0.737156       -20.0590
  26   2.0000      -0.686973       -18.6935
  27   2.0000      -0.677358       -18.4318
  28   2.0000      -0.677091       -18.4246
  29   2.0000      -0.675299       -18.3758
  30   2.0000      -0.619554       -16.8589
  31   2.0000      -0.614163       -16.7122
  32   2.0000      -0.581328       -15.8187
  33   2.0000      -0.551594       -15.0096
  34   2.0000      -0.548928       -14.9371
  35   2.0000      -0.540459       -14.7066
  36   2.0000      -0.519510       -14.1366
  37   2.0000      -0.486058       -13.2263
  38   2.0000      -0.473067       -12.8728
  39   2.0000      -0.446467       -12.1490
  40   2.0000      -0.423919       -11.5354
  41   2.0000      -0.414668       -11.2837
  42   2.0000      -0.412969       -11.2375
  43   2.0000      -0.406567       -11.0633
  44   2.0000      -0.399488       -10.8706
  45   2.0000      -0.397928       -10.8282
  46   2.0000      -0.393924       -10.7192
  47   2.0000      -0.382591       -10.4108
  48   2.0000      -0.380891       -10.3646
  49   2.0000      -0.370538       -10.0828
  50   2.0000      -0.351491        -9.5646
  51   2.0000      -0.345964        -9.4142
  52   2.0000      -0.343539        -9.3482
  53   2.0000      -0.338282        -9.2051
  54   2.0000      -0.336410        -9.1542
  55   2.0000      -0.324046        -8.8177
  56   2.0000      -0.319659        -8.6984
  57   2.0000      -0.309174        -8.4131
  58   2.0000      -0.306166        -8.3312
  59   2.0000      -0.302809        -8.2399
  60   2.0000      -0.293668        -7.9911
  61   2.0000      -0.290762        -7.9120
  62   2.0000      -0.290235        -7.8977
  63   2.0000      -0.244090        -6.6420
  64   2.0000      -0.239598        -6.5198
  65   2.0000      -0.238798        -6.4980
  66   2.0000      -0.236868        -6.4455
  67   2.0000      -0.218863        -5.9556
  68   2.0000      -0.211225        -5.7477
  69   0.0000      -0.070594        -1.9210
  70   0.0000      -0.055142        -1.5005
  71   0.0000      -0.054127        -1.4729
  72   0.0000      -0.047901        -1.3035
  73   0.0000       0.015354         0.4178

MULLIKEN ATOMIC CHARGES
-----------------------
   0 C :    0.029676
   1 C :   -0.408637
   2 C :    0.019258
   3 C :    0.030672
   4 P :    0.576965
   5 O :   -0.462927
   6 C :   -0.106367
   7 C :   -0.020497
   8 C :    0.000306
   9 C :    0.008904
  10 C :    0.004728
  11 C :    0.003006
  12 C :   -0.102028
  13 C :   -0.005386
  14 C :   -0.002347
  15 C :    0.008861
  16 C :    0.004438
  17 C :    0.000816
  18 H :    0.051150
  19 H :    0.035771
  20 H :    0.026290
  21 H :    0.028976
  22 H :    0.030937
  23 H :    0.033718
  24 H :    0.037275
  25 H :    0.050342
  26 H :    0.026950
  27 H :    0.006722
  28 H :    0.003372
  29 H :    0.009095
  30 H :    0.010815
  31 H :    0.027993
  32 H :   -0.008253
  33 H :    0.003399
  34 H :    0.008853
  35 H :    0.010352
  36 H :    0.026799
Sum of atomic charges:   -0.0000000

LOEWDIN ATOMIC CHARGES
----------------------
   0 C :   -0.067797
   1 C :   -0.180137
   2 C :   -0.071203
   3 C :   -0.067789
   4 P :    0.898738
   5 O :   -0.497503
   6 C :   -0.182252
   7 C :   -0.036267
   8 C :   -0.030571
   9 C :   -0.021371
  10 C :   -0.026739
  11 C :   -0.015468
  12 C :   -0.182201
  13 C :   -0.034205
  14 C :   -0.030730
  15 C :   -0.021651
  16 C :   -0.027506
  17 C :   -0.016551
  18 H :    0.034214
  19 H :    0.029367
  20 H :    0.029027
  21 H :    0.033342
  22 H :    0.026210
  23 H :    0.028189
  24 H :    0.029377
  25 H :    0.034296
  26 H :    0.029398
  27 H :    0.025006
  28 H :    0.034090
  29 H :    0.034785
  30 H :    0.035988
  31 H :    0.038802
  32 H :    0.026031
  33 H :    0.034066
  34 H :    0.034722
  35 H :    0.035799
  36 H :    0.038492

  Mayer bond orders larger than 0.100000
B(  0-C ,  1-C ) :   1.0185 B(  0-C , 18-H ) :   0.9495 B(  0-C , 19-H ) :   0.9585
B(  0-C , 20-H ) :   0.9521 B(  1-C ,  2-C ) :   1.0138 B(  1-C ,  3-C ) :   1.0205
B(  1-C ,  4-P ) :   0.8750 B(  2-C , 21-H ) :   0.9459 B(  2-C , 22-H ) :   0.9508
B(  2-C , 23-H ) :   0.9522 B(  3-C , 24-H ) :   0.9570 B(  3-C , 25-H ) :   0.9502
B(  3-C , 26-H ) :   0.9535 B(  4-P ,  5-O ) :   1.8270 B(  4-P ,  6-C ) :   0.8613
B(  4-P , 12-C ) :   0.8606 B(  6-C ,  7-C ) :   1.3512 B(  6-C , 11-C ) :   1.3910
B(  7-C ,  8-C ) :   1.4041 B(  7-C , 27-H ) :   0.9602 B(  8-C ,  9-C ) :   1.3780
B(  8-C , 28-H ) :   0.9735 B(  9-C , 10-C ) :   1.3803 B(  9-C , 29-H ) :   0.9762
B( 10-C , 11-C ) :   1.3647 B( 10-C , 30-H ) :   0.9790 B( 11-C , 31-H ) :   0.9658
B( 12-C , 13-C ) :   1.3524 B( 12-C , 17-C ) :   1.3880 B( 13-C , 14-C ) :   1.4044
B( 13-C , 32-H ) :   0.9657 B( 14-C , 15-C ) :   1.3778 B( 14-C , 33-H ) :   0.9736
B( 15-C , 16-C ) :   1.3803 B( 15-C , 34-H ) :   0.9760 B( 16-C , 17-C ) :   1.3657
B( 16-C , 35-H ) :   0.9786 B( 17-C , 36-H ) :   0.9667

Dispersion correction           -0.085187178
FINAL SINGLE POINT ENERGY     -1037.255445326155

DIPOLE MOMENT
-------------

Method             : SCF
Type of density    : Electron Density
Multiplicity       :   1
Irrep              :   0
Energy             : -1037.1702581476572504 Eh
Relativity type    :
Basis              : AO
                                X                 Y                 Z
Electronic contribution:     -1.703951178       9.436874011       7.082680019
Nuclear contribution   :      1.859267243      -9.056466258      -8.364865828
                        -----------------------------------------
Total Dipole Moment    :      0.155316065       0.380407753      -1.282185809
                        -----------------------------------------
Magnitude (a.u.)       :      1.346415087
Magnitude (Debye)      :      3.422315175

Rotational constants in cm-1:             0.017526             0.010307             0.008531
Rotational constants in MHz :           525.422868           309.009831           255.741402

                             ****ORCA TERMINATED NORMALLY****
TOTAL RUN TIME: 0 days 0 hours 3 minutes 37 seconds 908 msec
