                         Program Version 6.0.0  -   RELEASE   -
|  1> ! RIJONX B3LYP def2-SVP D3BJ TIGHTSCF Opt
|  2> %pal
|  3> nprocs 6
|  4> end
|  5>
|  6> * xyz 0 1
|  7> C      3.229864   -1.206882   -0.699023
|  8> C      3.025283   -1.089084    0.672654
|  9> C      1.801058   -0.624707    1.160035
| 10> C      0.764748   -0.271789    0.282921
| 11> C      0.986304   -0.396013   -1.095072
| 12> C      2.211133   -0.860614   -1.582529
| 13> P     -0.798797    0.324134    0.996285
| 14> C     -2.053101   -0.750605    0.152697
| 15> C     -1.985436   -2.203158    0.622394
| 16> C     -3.025597   -3.002306   -0.037763
| 17> N     -3.850956   -3.623938   -0.565420
| 18> C     -1.078164    1.906468    0.069916
| 19> C     -0.078424    2.994167    0.460470
| 20> C     -0.368821    4.238408   -0.263349
| 21> N     -0.607394    5.215990   -0.840828
| 22> H      4.182102   -1.568121   -1.079188
| 23> H      3.818314   -1.358468    1.365805
| 24> H      1.668821   -0.542619    2.237491
| 25> H      0.216303   -0.135967   -1.816759
| 26> H      2.369389   -0.952077   -2.654497
| 27> H     -1.939672   -0.696988   -0.936173
| 28> H     -3.045019   -0.339575    0.379150
| 29> H     -1.004089   -2.638344    0.400130
| 30> H     -2.119087   -2.260248    1.709548
| 31> H     -1.048201    1.732610   -1.011866
| 32> H     -2.095941    2.247018    0.298566
| 33> H      0.946985    2.679065    0.234465
| 34> H     -0.121603    3.183642    1.539942
| 35> **                         ****END OF INPUT****
 Total Charge           Charge          ....    0
 Multiplicity           Mult            ....    1
 Number of Electrons    NEL             ....  114
Dispersion correction           -0.060294592
FINAL SINGLE POINT ENERGY      -915.058062865211
Dispersion correction             ... done (  0.1 sec)
Dispersion correction           -0.060500361
FINAL SINGLE POINT ENERGY      -915.059748684461
Dispersion correction             ... done (  0.1 sec)
Dispersion correction           -0.060523497
FINAL SINGLE POINT ENERGY      -915.060114789564
Dispersion correction             ... done (  0.1 sec)
FINAL SINGLE POINT ENERGY      -915.060158209971
Dispersion correction             ... done (  0.1 sec)
Dispersion correction           -0.060497021
FINAL SINGLE POINT ENERGY      -915.060164679911
Dispersion correction             ... done (  0.1 sec)
Dispersion correction           -0.060520898
FINAL SINGLE POINT ENERGY      -915.060165830552
Dispersion correction             ... done (  0.1 sec)
                    ***********************HURRAY********************

CARTESIAN COORDINATES (ANGSTROEM)
---------------------------------
  C      3.186569   -1.192052   -0.692509
  C      2.995057   -1.077363    0.686110
  C      1.773826   -0.612695    1.185620
  C      0.730726   -0.257706    0.315305
  C      0.937008   -0.377855   -1.070495
  C      2.154874   -0.841272   -1.571052
  P     -0.851915    0.345910    1.063857
  C     -2.086593   -0.736228    0.163628
  C     -1.949917   -2.207751    0.587698
  C     -2.931305   -3.072762   -0.069450
  N     -3.717302   -3.736554   -0.602447
  C     -1.113683    1.918726    0.082181
  C     -0.047769    2.972657    0.424165
  C     -0.255029    4.231609   -0.293710
  N     -0.439679    5.217592   -0.873573
  H      4.139486   -1.554959   -1.085604
  H      3.797311   -1.350071    1.376344
  H      1.623647   -0.523010    2.265120
  H      0.142670   -0.108995   -1.772106
  H      2.300973   -0.929700   -2.650549
  H     -1.972804   -0.645986   -0.928888
  H     -3.092383   -0.362824    0.416467
  H     -0.940848   -2.581532    0.345292
  H     -2.068494   -2.307978    1.679857
  H     -1.111125    1.716783   -1.001260
  H     -2.115945    2.299241    0.338375
  H      0.957182    2.592723    0.174361
  H     -0.044536    3.182050    1.507264

 Multiplicity           Mult            ....    1
 Number of Electrons    NEL             ....  114
 Basis Dimension        Dim             ....  279

ORBITAL ENERGIES
----------------

  NO   OCC          E(Eh)            E(eV)
   0   2.0000     -77.071002     -2097.2086
   1   2.0000     -14.325000      -389.8031
   2   2.0000     -14.324997      -389.8030
   3   2.0000     -10.246028      -278.8086
   4   2.0000     -10.246018      -278.8083
   5   2.0000     -10.226666      -278.2817
   6   2.0000     -10.226664      -278.2817
   7   2.0000     -10.220929      -278.1256
   8   2.0000     -10.220925      -278.1255
   9   2.0000     -10.216015      -277.9919
  10   2.0000     -10.214088      -277.9395
  11   2.0000     -10.213673      -277.9282
  12   2.0000     -10.213083      -277.9121
  13   2.0000     -10.212486      -277.8959
  14   2.0000     -10.211449      -277.8677
  15   2.0000      -6.567932      -178.7225
  16   2.0000      -4.733406      -128.8025
  17   2.0000      -4.733178      -128.7963
  18   2.0000      -4.730235      -128.7162
  19   2.0000      -0.896829       -24.4040
  20   2.0000      -0.896617       -24.3982
  21   2.0000      -0.869673       -23.6650
  22   2.0000      -0.820998       -22.3405
  23   2.0000      -0.805631       -21.9223
  24   2.0000      -0.764527       -20.8038
  25   2.0000      -0.759605       -20.6699
  26   2.0000      -0.709839       -19.3157
  27   2.0000      -0.659931       -17.9576
  28   2.0000      -0.627055       -17.0630
  29   2.0000      -0.618755       -16.8372
  30   2.0000      -0.569672       -15.5016
  31   2.0000      -0.530912       -14.4469
  32   2.0000      -0.527425       -14.3520
  33   2.0000      -0.509409       -13.8617
  34   2.0000      -0.498315       -13.5598
  35   2.0000      -0.492777       -13.4091
  36   2.0000      -0.474328       -12.9071
  37   2.0000      -0.467334       -12.7168
  38   2.0000      -0.445946       -12.1348
  39   2.0000      -0.441946       -12.0260
  40   2.0000      -0.422274       -11.4907
  41   2.0000      -0.420923       -11.4539
  42   2.0000      -0.398156       -10.8344
  43   2.0000      -0.397184       -10.8079
  44   2.0000      -0.395224       -10.7546
  45   2.0000      -0.373348       -10.1593
  46   2.0000      -0.367934       -10.0120
  47   2.0000      -0.358780        -9.7629
  48   2.0000      -0.352100        -9.5811
  49   2.0000      -0.340937        -9.2774
  50   2.0000      -0.334165        -9.0931
  51   2.0000      -0.329452        -8.9648
  52   2.0000      -0.328975        -8.9519
  53   2.0000      -0.325046        -8.8449
  54   2.0000      -0.278561        -7.5800
  55   2.0000      -0.276708        -7.5296
  56   2.0000      -0.258436        -7.0324
  57   0.0000      -0.047666        -1.2971
  58   0.0000      -0.032487        -0.8840
  59   0.0000       0.013707         0.3730
  60   0.0000       0.015423         0.4197
  61   0.0000       0.031369         0.8536

MULLIKEN ATOMIC CHARGES
-----------------------
   0 C :    0.027365
   1 C :    0.023831
   2 C :    0.023103
   3 C :   -0.173674
   4 C :    0.010277
   5 C :    0.027679
   6 P :    0.242100
   7 C :   -0.168831
   8 C :    0.116012
   9 C :   -0.278218
  10 N :    0.056443
  11 C :   -0.168589
  12 C :    0.116031
  13 C :   -0.278385
  14 N :    0.056463
  15 H :   -0.003990
  16 H :   -0.006115
  17 H :   -0.013213
  18 H :   -0.013088
  19 H :   -0.006700
  20 H :    0.043048
  21 H :    0.056717
  22 H :    0.056348
  23 H :    0.049599
  24 H :    0.043041
  25 H :    0.056763
  26 H :    0.056427
  27 H :    0.049555
Sum of atomic charges:   -0.0000000

LOEWDIN ATOMIC CHARGES
----------------------
   0 C :   -0.011625
   1 C :   -0.020514
   2 C :   -0.029499
   3 C :   -0.190262
   4 C :   -0.030074
   5 C :   -0.018619
   6 P :    0.479795
   7 C :   -0.159360
   8 C :   -0.055642
   9 C :   -0.037504
  10 N :   -0.075236
  11 C :   -0.159382
  12 C :   -0.055612
  13 C :   -0.037518
  14 N :   -0.075229
  15 H :    0.031833
  16 H :    0.031430
  17 H :    0.025576
  18 H :    0.023664
  19 H :    0.031781
  20 H :    0.023147
  21 H :    0.033043
  22 H :    0.055463
  23 H :    0.054334
  24 H :    0.023155
  25 H :    0.033058
  26 H :    0.055498
  27 H :    0.054298

  Mayer bond orders larger than 0.100000
B(  0-C ,  1-C ) :   1.3923 B(  0-C ,  5-C ) :   1.3704 B(  0-C , 15-H ) :   0.9853
B(  1-C ,  2-C ) :   1.3808 B(  1-C , 16-H ) :   0.9867 B(  2-C ,  3-C ) :   1.3893
B(  2-C , 17-H ) :   0.9867 B(  3-C ,  4-C ) :   1.3394 B(  3-C ,  6-P ) :   0.9280
B(  4-C ,  5-C ) :   1.4167 B(  4-C , 18-H ) :   0.9812 B(  5-C , 19-H ) :   0.9842
B(  6-P ,  7-C ) :   0.9718 B(  6-P , 11-C ) :   0.9715 B(  7-C ,  8-C ) :   1.0562
B(  7-C , 20-H ) :   0.9278 B(  7-C , 21-H ) :   0.9423 B(  8-C ,  9-C ) :   1.1342
B(  8-C , 22-H ) :   0.8976 B(  8-C , 23-H ) :   0.8999 B(  9-C , 10-N ) :   3.0579
B( 11-C , 12-C ) :   1.0562 B( 11-C , 24-H ) :   0.9279 B( 11-C , 25-H ) :   0.9424
B( 12-C , 13-C ) :   1.1342 B( 12-C , 26-H ) :   0.8976 B( 12-C , 27-H ) :   0.8999
B( 13-C , 14-N ) :   3.0579

Dispersion correction           -0.060517354
FINAL SINGLE POINT ENERGY      -915.060166307629

DIPOLE MOMENT
-------------

Method             : SCF
Type of density    : Electron Density
Multiplicity       :   1
Irrep              :   0
Energy             :  -914.9996489537837761 Eh
Relativity type    :
Basis              : AO
                                X                 Y                 Z
Electronic contribution:     -2.994331568       1.153081787       1.645791421
Nuclear contribution   :      4.462894875      -1.668183458      -0.853863339
                        -----------------------------------------
Total Dipole Moment    :      1.468563308      -0.515101671       0.791928082
                        -----------------------------------------
Magnitude (a.u.)       :      1.746183841
Magnitude (Debye)      :      4.438446595

Rotational constants in cm-1:             0.018104             0.011814             0.008231
Rotational constants in MHz :           542.733667           354.179092           246.745373

                             ****ORCA TERMINATED NORMALLY****
TOTAL RUN TIME: 0 days 0 hours 2 minutes 50 seconds 550 msec
