                         Program Version 6.0.0  -   RELEASE   -
|  1> ! RIJCOSX M062X def2-TZVP D3ZERO NormalSCF
|  2> %pal
|  3> nprocs 6
|  4> end
|  5>
|  6> * xyz 0 1
|  7>   C           3.90021325096263     -1.35146328152519     -0.34919391837697
|  8>   C           2.58575026844082     -1.36055199294520      0.43817338551688
|  9>   C           1.88330782752232      0.00345600785359      0.43590399969195
| 10>   P           0.29646225153549     -0.01882820145641      1.43995025229663
| 11>   C          -0.45423281094778      1.61055076350446      0.99090357372332
| 12>   C          -1.81831885166311      1.80999901208287      1.31037289404640
| 13>   C          -2.44786493081593      3.03297311872699      1.04368910462654
| 14>   C          -1.72177301494806      4.09110877689022      0.46684277464257
| 15>   C          -0.36507162386182      3.91025132780993      0.15781916383844
| 16>   C           0.26460019858387      2.67926524122311      0.41456256982053
| 17>   C          -0.71334630703538     -1.14036318920314      0.35626772716729
| 18>   C          -0.98413481800292     -2.44545281231300      0.81745458815963
| 19>   C          -1.70052459837481     -3.35243541627483      0.01743375556569
| 20>   C          -2.16186197718656     -2.95855752205361     -1.24891122433008
| 21>   C          -1.90321578724124     -1.65630741166124     -1.71427767030566
| 22>   C          -1.18342049423227     -0.75335563535898     -0.91792760101204
| 23>   H           4.38783746862454     -2.34762632472576     -0.33689426651595
| 24>   H           3.73021384168344     -1.07444170997957     -1.41085804629653
| 25>   H           4.62072081973779     -0.61952258584427      0.07296117608246
| 26>   H           2.77438079712906     -1.67504304713582      1.48840116313306
| 27>   H           1.90020353858139     -2.12488760927633      0.01178162277800
| 28>   H           1.66533044387242      0.32957781241318     -0.60522780470023
| 29>   H           2.54560611231302      0.77179074021578      0.89204853406273
| 30>   H          -2.39418122643531      0.98738350460518      1.76472835008994
| 31>   H          -3.51278621805346      3.16441009015994      1.29087175583395
| 32>   H          -2.21398947860886      5.05395710211588      0.26141655108020
| 33>   H           0.21227085432707      4.73202519984973     -0.29386926299473
| 34>   H           1.32662494235931      2.55955372292095      0.15527982319116
| 35>   H          -0.62979509733230     -2.74817425426788      1.81599574227034
| 36>   H          -1.90468873141564     -4.36880439751900      0.38846384095416
| 37>   H          -2.72871730581191     -3.66528678892940     -1.87443466391263
| 38>   H          -2.26698995328321     -1.34314658707841     -2.70537625117257
| 39>   H          -0.98861239042261      0.26794534717626     -1.28145663895450
| 40> **                         ****END OF INPUT****

CARTESIAN COORDINATES (ANGSTROEM)
---------------------------------
  C      3.900213   -1.351463   -0.349194
  C      2.585750   -1.360552    0.438173
  C      1.883308    0.003456    0.435904
  P      0.296462   -0.018828    1.439950
  C     -0.454233    1.610551    0.990904
  C     -1.818319    1.809999    1.310373
  C     -2.447865    3.032973    1.043689
  C     -1.721773    4.091109    0.466843
  C     -0.365072    3.910251    0.157819
  C      0.264600    2.679265    0.414563
  C     -0.713346   -1.140363    0.356268
  C     -0.984135   -2.445453    0.817455
  C     -1.700525   -3.352435    0.017434
  C     -2.161862   -2.958558   -1.248911
  C     -1.903216   -1.656307   -1.714278
  C     -1.183420   -0.753356   -0.917928
  H      4.387837   -2.347626   -0.336894
  H      3.730214   -1.074442   -1.410858
  H      4.620721   -0.619523    0.072961
  H      2.774381   -1.675043    1.488401
  H      1.900204   -2.124888    0.011782
  H      1.665330    0.329578   -0.605228
  H      2.545606    0.771791    0.892049
  H     -2.394181    0.987384    1.764728
  H     -3.512786    3.164410    1.290872
  H     -2.213989    5.053957    0.261417
  H      0.212271    4.732025   -0.293869
  H      1.326625    2.559554    0.155280
  H     -0.629795   -2.748174    1.815996
  H     -1.904689   -4.368804    0.388464
  H     -2.728717   -3.665287   -1.874435
  H     -2.266990   -1.343147   -2.705376
  H     -0.988612    0.267945   -1.281457

 Total Charge           Charge          ....    0
 Multiplicity           Mult            ....    1
 Number of Electrons    NEL             ....  122
 Basis Dimension        Dim             ....  604

ORBITAL ENERGIES
----------------

  NO   OCC          E(Eh)            E(eV)
   0   2.0000     -78.026094     -2123.1979
   1   2.0000     -10.553989      -287.1886
   2   2.0000     -10.552460      -287.1470
   3   2.0000     -10.551989      -287.1342
   4   2.0000     -10.551360      -287.1171
   5   2.0000     -10.551048      -287.1086
   6   2.0000     -10.550679      -287.0986
   7   2.0000     -10.550142      -287.0839
   8   2.0000     -10.549959      -287.0790
   9   2.0000     -10.549951      -287.0788
  10   2.0000     -10.549679      -287.0714
  11   2.0000     -10.549137      -287.0566
  12   2.0000     -10.548665      -287.0438
  13   2.0000     -10.542931      -286.8877
  14   2.0000     -10.539260      -286.7878
  15   2.0000     -10.529716      -286.5281
  16   2.0000      -6.842148      -186.1843
  17   2.0000      -4.956705      -134.8788
  18   2.0000      -4.956439      -134.8716
  19   2.0000      -4.956190      -134.8648
  20   2.0000      -0.958324       -26.0773
  21   2.0000      -0.952402       -25.9162
  22   2.0000      -0.887657       -24.1544
  23   2.0000      -0.854172       -23.2432
  24   2.0000      -0.840739       -22.8777
  25   2.0000      -0.839945       -22.8561
  26   2.0000      -0.833871       -22.6908
  27   2.0000      -0.780925       -21.2501
  28   2.0000      -0.712189       -19.3796
  29   2.0000      -0.687658       -18.7121
  30   2.0000      -0.685996       -18.6669
  31   2.0000      -0.675247       -18.3744
  32   2.0000      -0.665108       -18.0985
  33   2.0000      -0.625190       -17.0123
  34   2.0000      -0.587733       -15.9930
  35   2.0000      -0.571022       -15.5383
  36   2.0000      -0.534389       -14.5415
  37   2.0000      -0.524751       -14.2792
  38   2.0000      -0.518456       -14.1079
  39   2.0000      -0.514703       -14.0058
  40   2.0000      -0.512452       -13.9445
  41   2.0000      -0.488237       -13.2856
  42   2.0000      -0.486468       -13.2375
  43   2.0000      -0.479696       -13.0532
  44   2.0000      -0.477045       -12.9811
  45   2.0000      -0.465123       -12.6566
  46   2.0000      -0.449980       -12.2446
  47   2.0000      -0.438384       -11.9290
  48   2.0000      -0.433757       -11.8031
  49   2.0000      -0.427278       -11.6268
  50   2.0000      -0.404104       -10.9962
  51   2.0000      -0.403367       -10.9762
  52   2.0000      -0.400057       -10.8861
  53   2.0000      -0.390961       -10.6386
  54   2.0000      -0.371174       -10.1001
  55   2.0000      -0.364779        -9.9261
  56   2.0000      -0.325274        -8.8512
  57   2.0000      -0.312171        -8.4946
  58   2.0000      -0.309664        -8.4264
  59   2.0000      -0.306051        -8.3281
  60   2.0000      -0.268187        -7.2977
  61   0.0000       0.000301         0.0082
  62   0.0000       0.007614         0.2072
  63   0.0000       0.009516         0.2590
  64   0.0000       0.022417         0.6100
  65   0.0000       0.062900         1.7116

MULLIKEN ATOMIC CHARGES
-----------------------
   0 C :   -0.422144
   1 C :   -0.270905
   2 C :   -0.422371
   3 P :    0.178770
   4 C :   -0.034139
   5 C :   -0.165935
   6 C :   -0.149256
   7 C :   -0.142286
   8 C :   -0.161652
   9 C :   -0.166519
  10 C :   -0.124846
  11 C :   -0.130445
  12 C :   -0.143238
  13 C :   -0.134106
  14 C :   -0.170020
  15 C :   -0.143352
  16 H :    0.143696
  17 H :    0.138761
  18 H :    0.136428
  19 H :    0.145220
  20 H :    0.159299
  21 H :    0.176720
  22 H :    0.159704
  23 H :    0.162005
  24 H :    0.145052
  25 H :    0.144717
  26 H :    0.143298
  27 H :    0.167160
  28 H :    0.157820
  29 H :    0.145352
  30 H :    0.145343
  31 H :    0.145797
  32 H :    0.186069
Sum of atomic charges:   -0.0000000

LOEWDIN ATOMIC CHARGES
----------------------
   0 C :   -0.324390
   1 C :   -0.327998
   2 C :   -0.412138
   3 P :    0.653891
   4 C :   -0.281462
   5 C :   -0.138815
   6 C :   -0.143608
   7 C :   -0.145153
   8 C :   -0.145310
   9 C :   -0.150655
  10 C :   -0.279206
  11 C :   -0.149554
  12 C :   -0.144877
  13 C :   -0.140566
  14 C :   -0.142486
  15 C :   -0.133103
  16 H :    0.122911
  17 H :    0.122534
  18 H :    0.121546
  19 H :    0.138535
  20 H :    0.143182
  21 H :    0.133400
  22 H :    0.135402
  23 H :    0.152484
  24 H :    0.147759
  25 H :    0.146540
  26 H :    0.147073
  27 H :    0.148242
  28 H :    0.148683
  29 H :    0.147312
  30 H :    0.146995
  31 H :    0.147559
  32 H :    0.155274

  Mayer bond orders larger than 0.100000
B(  0-C ,  1-C ) :   0.9459 B(  0-C , 16-H ) :   0.9781 B(  0-C , 17-H ) :   0.9731
B(  0-C , 18-H ) :   0.9752 B(  1-C ,  2-C ) :   0.9277 B(  1-C , 19-H ) :   0.9721
B(  1-C , 20-H ) :   0.9725 B(  2-C ,  3-P ) :   0.9661 B(  2-C , 21-H ) :   0.9479
B(  2-C , 22-H ) :   0.9387 B(  3-P ,  4-C ) :   0.9833 B(  3-P , 10-C ) :   0.9505
B(  4-C ,  5-C ) :   1.3671 B(  4-C ,  9-C ) :   1.3614 B(  5-C ,  6-C ) :   1.4799
B(  5-C , 23-H ) :   0.9380 B(  6-C ,  7-C ) :   1.4186 B(  6-C , 24-H ) :   0.9467
B(  7-C ,  8-C ) :   1.4571 B(  7-C , 25-H ) :   0.9467 B(  8-C ,  9-C ) :   1.4626
B(  8-C , 26-H ) :   0.9432 B(  9-C , 27-H ) :   0.9232 B( 10-C , 11-C ) :   1.3872
B( 10-C , 15-C ) :   1.3256 B( 11-C , 12-C ) :   1.4486 B( 11-C , 28-H ) :   0.9304
B( 12-C , 13-C ) :   1.4489 B( 12-C , 29-H ) :   0.9475 B( 13-C , 14-C ) :   1.4238
B( 13-C , 30-H ) :   0.9471 B( 14-C , 15-C ) :   1.4866 B( 14-C , 31-H ) :   0.9421
B( 15-C , 32-H ) :   0.9260

Dispersion correction           -0.001793574
FINAL SINGLE POINT ENERGY      -923.127238869774

DIPOLE MOMENT
-------------

Method             : SCF
Type of density    : Electron Density
Multiplicity       :   1
Irrep              :   0
Energy             :  -923.1254452961273955 Eh
Relativity type    :
Basis              : AO
                                X                 Y                 Z
Electronic contribution:    -10.232354190       3.435139350       5.782924255
Nuclear contribution   :     10.218417917      -3.454219347      -6.305267222
                        -----------------------------------------
Total Dipole Moment    :     -0.013936274      -0.019079997      -0.522342967
                        -----------------------------------------
Magnitude (a.u.)       :      0.522877081
Magnitude (Debye)      :      1.329047918

Rotational constants in cm-1:             0.019376             0.012036             0.008627
Rotational constants in MHz :           580.869391           360.828865           258.629803

                             ****ORCA TERMINATED NORMALLY****
TOTAL RUN TIME: 0 days 0 hours 1 minutes 36 seconds 228 msec
