                         Program Version 6.0.0  -   RELEASE   -
|  1> ! RI BP86 def2-SVP D3BJ TIGHTSCF Opt
|  2> %pal
|  3> nprocs 6
|  4> end
|  5>
|  6> * xyz 0 1
|  7> C      2.960850   -1.668344    1.288445
|  8> C      1.698576   -1.284870    0.829878
|  9> C      1.556229   -0.663314   -0.421458
| 10> C      2.704347   -0.440070   -1.202472
| 11> C      3.964287   -0.823780   -0.742208
| 12> C      4.080819   -1.433826    0.499721
| 13> F      5.289052   -1.802259    0.944335
| 14> P     -0.043319   -0.130558   -1.068273
| 15> O     -0.104407   -0.314691   -2.574871
| 16> C     -1.329912   -1.098963   -0.251194
| 17> C     -1.672510   -2.351487   -0.791382
| 18> C     -2.652584   -3.142057   -0.190565
| 19> C     -3.295115   -2.682492    0.951398
| 20> C     -2.976631   -1.446896    1.502109
| 21> C     -1.995677   -0.653860    0.902529
| 22> F     -4.235518   -3.439698    1.530653
| 23> C     -0.278905    1.603798   -0.624131
| 24> C     -1.168994    2.378011   -1.389851
| 25> C     -1.393278    3.719799   -1.080290
| 26> C     -0.727073    4.293026   -0.005253
| 27> C      0.159879    3.549704    0.764295
| 28> C      0.385805    2.206255    0.456444
| 29> F     -0.941221    5.580443    0.294667
| 30> H      3.078342   -2.151683    2.253629
| 31> H      0.833997   -1.480023    1.459151
| 32> H      2.609325    0.030549   -2.180700
| 33> H      4.850959   -0.654657   -1.345165
| 34> H     -1.173374   -2.705988   -1.692845
| 35> H     -2.920023   -4.107745   -0.608019
| 36> H     -3.497371   -1.108263    2.392706
| 37> H     -1.762966    0.311116    1.345512
| 38> H     -1.683708    1.928428   -2.238606
| 39> H     -2.077850    4.319311   -1.672147
| 40> H      0.672089    4.022935    1.596578
| 41> H      1.085880    1.642150    1.067381
| 42> **                         ****END OF INPUT****
 Total Charge           Charge          ....    0
 Multiplicity           Mult            ....    1
 Number of Electrons    NEL             ....  170
Dispersion correction           -0.085778956
FINAL SINGLE POINT ENERGY     -1408.497752843269
Dispersion correction             ... done (  0.1 sec)
Dispersion correction           -0.085760970
FINAL SINGLE POINT ENERGY     -1408.502790413043
Dispersion correction             ... done (  0.1 sec)
Dispersion correction           -0.085858379
FINAL SINGLE POINT ENERGY     -1408.503820906508
Dispersion correction             ... done (  0.1 sec)
FINAL SINGLE POINT ENERGY     -1408.504012894243
FINAL SINGLE POINT ENERGY     -1408.504065902897
Dispersion correction             ... done (  0.1 sec)
Dispersion correction           -0.085722385
FINAL SINGLE POINT ENERGY     -1408.504072055850
Dispersion correction             ... done (  0.1 sec)
Dispersion correction           -0.085715815
FINAL SINGLE POINT ENERGY     -1408.504074131450
Dispersion correction             ... done (  0.1 sec)
                    ***********************HURRAY********************

CARTESIAN COORDINATES (ANGSTROEM)
---------------------------------
  C      2.969627   -1.489142    1.371571
  C      1.703553   -1.130122    0.885069
  C      1.555548   -0.654657   -0.433643
  C      2.683679   -0.563885   -1.275933
  C      3.952686   -0.921109   -0.801503
  C      4.077427   -1.374916    0.519832
  F      5.293439   -1.722551    0.979901
  P     -0.045107   -0.144088   -1.157619
  O     -0.105737   -0.331347   -2.663609
  C     -1.320008   -1.103705   -0.262688
  C     -1.783255   -2.277029   -0.893931
  C     -2.746612   -3.082550   -0.272180
  C     -3.242436   -2.697032    0.981948
  C     -2.810109   -1.526938    1.622371
  C     -1.846836   -0.727126    0.989528
  F     -4.168413   -3.465950    1.584048
  C     -0.286067    1.593888   -0.639703
  C     -1.050191    2.407637   -1.502102
  C     -1.302201    3.746390   -1.174170
  C     -0.777071    4.259983    0.020738
  C     -0.000710    3.476347    0.886279
  C      0.246967    2.137865    0.546561
  F     -1.015251    5.545287    0.340972
  H      3.111135   -1.867295    2.394169
  H      0.822919   -1.240876    1.536276
  H      2.547081   -0.225124   -2.314552
  H      4.846840   -0.862812   -1.438759
  H     -1.387304   -2.537876   -1.887543
  H     -3.126500   -4.000148   -0.744095
  H     -3.240261   -1.254270    2.596709
  H     -1.517781    0.207221    1.469757
  H     -1.429851    1.977464   -2.441757
  H     -1.892146    4.402408   -1.830385
  H      0.406350    3.926118    1.803212
  H      0.876597    1.519942    1.205234

 Multiplicity           Mult            ....    1
 Number of Electrons    NEL             ....  170
 Basis Dimension        Dim             ....  386

ORBITAL ENERGIES
----------------

  NO   OCC          E(Eh)            E(eV)
   0   2.0000     -76.425511     -2079.6439
   1   2.0000     -24.311555      -661.5511
   2   2.0000     -24.311542      -661.5507
   3   2.0000     -24.311504      -661.5497
   4   2.0000     -18.726173      -509.5651
   5   2.0000     -10.013649      -272.4853
   6   2.0000     -10.013603      -272.4840
   7   2.0000     -10.013593      -272.4837
   8   2.0000      -9.948137      -270.7026
   9   2.0000      -9.948083      -270.7011
  10   2.0000      -9.948046      -270.7001
  11   2.0000      -9.943175      -270.5675
  12   2.0000      -9.943107      -270.5657
  13   2.0000      -9.943064      -270.5645
  14   2.0000      -9.941411      -270.5196
  15   2.0000      -9.941359      -270.5181
  16   2.0000      -9.941335      -270.5175
  17   2.0000      -9.939576      -270.4696
  18   2.0000      -9.939529      -270.4683
  19   2.0000      -9.939525      -270.4682
  20   2.0000      -9.936783      -270.3936
  21   2.0000      -9.936736      -270.3923
  22   2.0000      -9.936606      -270.3888
  23   2.0000      -6.383349      -173.6998
  24   2.0000      -4.604570      -125.2967
  25   2.0000      -4.604565      -125.2966
  26   2.0000      -4.604370      -125.2913
  27   2.0000      -1.120249       -30.4835
  28   2.0000      -1.120225       -30.4829
  29   2.0000      -1.120184       -30.4817
  30   2.0000      -0.860638       -23.4192
  31   2.0000      -0.796173       -21.6650
  32   2.0000      -0.793131       -21.5822
  33   2.0000      -0.793109       -21.5816
  34   2.0000      -0.707755       -19.2590
  35   2.0000      -0.695439       -18.9239
  36   2.0000      -0.695284       -18.9197
  37   2.0000      -0.695261       -18.9190
  38   2.0000      -0.684000       -18.6126
  39   2.0000      -0.683958       -18.6114
  40   2.0000      -0.596597       -16.2342
  41   2.0000      -0.577703       -15.7201
  42   2.0000      -0.575090       -15.6490
  43   2.0000      -0.575021       -15.6471
  44   2.0000      -0.558790       -15.2054
  45   2.0000      -0.558734       -15.2039
  46   2.0000      -0.518737       -14.1155
  47   2.0000      -0.503230       -13.6936
  48   2.0000      -0.503174       -13.6921
  49   2.0000      -0.500468       -13.6184
  50   2.0000      -0.457781       -12.4569
  51   2.0000      -0.457628       -12.4527
  52   2.0000      -0.455951       -12.4071
  53   2.0000      -0.443789       -12.0761
  54   2.0000      -0.443674       -12.0730
  55   2.0000      -0.422611       -11.4998
  56   2.0000      -0.422571       -11.4987
  57   2.0000      -0.422391       -11.4938
  58   2.0000      -0.415732       -11.3126
  59   2.0000      -0.411010       -11.1842
  60   2.0000      -0.410879       -11.1806
  61   2.0000      -0.400612       -10.9012
  62   2.0000      -0.398662       -10.8482
  63   2.0000      -0.398644       -10.8477
  64   2.0000      -0.388554       -10.5731
  65   2.0000      -0.362989        -9.8774
  66   2.0000      -0.361759        -9.8440
  67   2.0000      -0.361688        -9.8420
  68   2.0000      -0.349279        -9.5044
  69   2.0000      -0.349078        -9.4989
  70   2.0000      -0.336012        -9.1433
  71   2.0000      -0.326520        -8.8851
  72   2.0000      -0.326431        -8.8826
  73   2.0000      -0.320804        -8.7295
  74   2.0000      -0.315095        -8.5742
  75   2.0000      -0.315066        -8.5734
  76   2.0000      -0.309327        -8.4172
  77   2.0000      -0.255754        -6.9594
  78   2.0000      -0.255440        -6.9509
  79   2.0000      -0.255344        -6.9483
  80   2.0000      -0.244740        -6.6597
  81   2.0000      -0.244659        -6.6575
  82   2.0000      -0.233506        -6.3540
  83   2.0000      -0.226609        -6.1664
  84   2.0000      -0.226479        -6.1628
  85   0.0000      -0.073436        -1.9983
  86   0.0000      -0.073171        -1.9911
  87   0.0000      -0.070369        -1.9148
  88   0.0000      -0.061447        -1.6721
  89   0.0000      -0.061266        -1.6671

MULLIKEN ATOMIC CHARGES
-----------------------
   0 C :   -0.057635
   1 C :   -0.014413
   2 C :   -0.118667
   3 C :    0.008663
   4 C :   -0.057394
   5 C :    0.259892
   6 F :   -0.159372
   7 P :    0.634731
   8 O :   -0.452989
   9 C :   -0.119355
  10 C :    0.008210
  11 C :   -0.057468
  12 C :    0.260011
  13 C :   -0.057568
  14 C :   -0.013754
  15 F :   -0.159387
  16 C :   -0.118932
  17 C :    0.008364
  18 C :   -0.057326
  19 C :    0.259829
  20 C :   -0.057566
  21 C :   -0.014149
  22 F :   -0.159425
  23 H :    0.015383
  24 H :    0.012547
  25 H :    0.030184
  26 H :    0.020401
  27 H :    0.030248
  28 H :    0.020445
  29 H :    0.015437
  30 H :    0.012203
  31 H :    0.030119
  32 H :    0.020410
  33 H :    0.015389
  34 H :    0.012934
Sum of atomic charges:   -0.0000000

LOEWDIN ATOMIC CHARGES
----------------------
   0 C :   -0.058084
   1 C :   -0.026321
   2 C :   -0.196452
   3 C :   -0.003872
   4 C :   -0.053554
   5 C :    0.079714
   6 F :   -0.042109
   7 P :    0.887278
   8 O :   -0.487678
   9 C :   -0.196433
  10 C :   -0.003949
  11 C :   -0.053606
  12 C :    0.079762
  13 C :   -0.058061
  14 C :   -0.026302
  15 F :   -0.042117
  16 C :   -0.196404
  17 C :   -0.003946
  18 C :   -0.053564
  19 C :    0.079711
  20 C :   -0.058072
  21 C :   -0.026439
  22 F :   -0.042165
  23 H :    0.044007
  24 H :    0.035431
  25 H :    0.042606
  26 H :    0.045543
  27 H :    0.042661
  28 H :    0.045555
  29 H :    0.044016
  30 H :    0.035320
  31 H :    0.042617
  32 H :    0.045535
  33 H :    0.043995
  34 H :    0.035377

  Mayer bond orders larger than 0.100000
B(  0-C ,  1-C ) :   1.3640 B(  0-C ,  5-C ) :   1.3439 B(  0-C , 23-H ) :   0.9787
B(  1-C ,  2-C ) :   1.3580 B(  1-C , 24-H ) :   0.9643 B(  2-C ,  3-C ) :   1.3676
B(  2-C ,  7-P ) :   0.8816 B(  3-C ,  4-C ) :   1.3537 B(  3-C , 25-H ) :   0.9708
B(  4-C ,  5-C ) :   1.3414 B(  4-C , 26-H ) :   0.9809 B(  5-C ,  6-F ) :   1.1071
B(  7-P ,  8-O ) :   1.8822 B(  7-P ,  9-C ) :   0.8819 B(  7-P , 16-C ) :   0.8825
B(  9-C , 10-C ) :   1.3692 B(  9-C , 14-C ) :   1.3563 B( 10-C , 11-C ) :   1.3523
B( 10-C , 27-H ) :   0.9707 B( 11-C , 12-C ) :   1.3419 B( 11-C , 28-H ) :   0.9810
B( 12-C , 13-C ) :   1.3434 B( 12-C , 15-F ) :   1.1070 B( 13-C , 14-C ) :   1.3643
B( 13-C , 29-H ) :   0.9788 B( 14-C , 30-H ) :   0.9642 B( 16-C , 17-C ) :   1.3687
B( 16-C , 21-C ) :   1.3573 B( 17-C , 18-C ) :   1.3525 B( 17-C , 31-H ) :   0.9708
B( 18-C , 19-C ) :   1.3418 B( 18-C , 32-H ) :   0.9809 B( 19-C , 20-C ) :   1.3437
B( 19-C , 22-F ) :   1.1070 B( 20-C , 21-C ) :   1.3642 B( 20-C , 33-H ) :   0.9788
B( 21-C , 34-H ) :   0.9641

Dispersion correction           -0.085716070
FINAL SINGLE POINT ENERGY     -1408.504074539209

DIPOLE MOMENT
-------------

Method             : SCF
Type of density    : Electron Density
Multiplicity       :   1
Irrep              :   0
Energy             : -1408.4183584691181750 Eh
Relativity type    :
Basis              : AO
                                X                 Y                 Z
Electronic contribution:      0.070531824       0.239586555       1.981246133
Nuclear contribution   :     -0.030982412      -0.117780113      -1.001364095
                        -----------------------------------------
Total Dipole Moment    :      0.039549412       0.121806442       0.979882038
                        -----------------------------------------
Magnitude (a.u.)       :      0.988215449
Magnitude (Debye)      :      2.511844051

Rotational constants in cm-1:             0.006796             0.006780             0.004106
Rotational constants in MHz :           203.737256           203.265627           123.096838

                             ****ORCA TERMINATED NORMALLY****
TOTAL RUN TIME: 0 days 0 hours 2 minutes 19 seconds 413 msec
