                         Program Version 6.0.0  -   RELEASE   -
|  1> ! RIJONX B3LYP def2-SVP D3BJ TIGHTSCF Opt
|  2> %pal
|  3> nprocs 6
|  4> end
|  5>
|  6> * xyz 0 1
|  7> C     -0.282006    1.590062    1.757346
|  8> C     -0.518453    1.760599    0.250647
|  9> C      0.449281    2.869138   -0.242495
| 10> C     -1.946174    2.291638    0.027055
| 11> P     -0.197593    0.250440   -0.786035
| 12> C      1.427919   -0.368711   -0.299506
| 13> C      2.475281   -0.236849   -1.227049
| 14> C      3.764166   -0.693828   -0.937263
| 15> C      4.029435   -1.293487    0.289065
| 16> C      3.006232   -1.433865    1.221442
| 17> C      1.717511   -0.975312    0.927166
| 18> C     -1.451988   -1.093082   -0.535420
| 19> C     -1.945547   -1.301741    0.897861
| 20> C     -2.680192   -0.786155   -1.427375
| 21> C     -0.878143   -2.437890   -1.046638
| 22> H      0.768721    1.389515    1.989776
| 23> H     -0.878943    0.789023    2.196258
| 24> H     -0.544034    2.509122    2.296525
| 25> H      0.278630    3.808638    0.297300
| 26> H      1.499918    2.597376   -0.085751
| 27> H      0.316819    3.080262   -1.310921
| 28> H     -2.080140    3.271195    0.502480
| 29> H     -2.175726    2.416730   -1.037804
| 30> H     -2.702885    1.632806    0.461715
| 31> H      2.296531    0.226858   -2.195819
| 32> H      4.556596   -0.580121   -1.672034
| 33> H      5.029977   -1.649872    0.517754
| 34> H      3.207565   -1.900039    2.182402
| 35> H      0.951874   -1.097453    1.685068
| 36> H     -1.136850   -1.537420    1.592625
| 37> H     -2.651827   -2.140211    0.946652
| 38> H     -2.481531   -0.430300    1.282629
| 39> H     -2.398366   -0.661999   -2.480384
| 40> H     -3.410881   -1.603253   -1.383243
| 41> H     -3.206527    0.121293   -1.119249
| 42> H     -0.055646   -2.800603   -0.421074
| 43> H     -1.645885   -3.221465   -1.037677
| 44> H     -0.507120   -2.361038   -2.076030
| 45> **                         ****END OF INPUT****
 Total Charge           Charge          ....    0
 Multiplicity           Mult            ....    1
 Number of Electrons    NEL             ....  122
Dispersion correction           -0.085099731
FINAL SINGLE POINT ENERGY      -887.835127363606
Dispersion correction             ... done (  0.1 sec)
Dispersion correction           -0.086389063
FINAL SINGLE POINT ENERGY      -887.841328626425
Dispersion correction             ... done (  0.1 sec)
Dispersion correction           -0.085259692
FINAL SINGLE POINT ENERGY      -887.842745066703
Dispersion correction             ... done (  0.1 sec)
FINAL SINGLE POINT ENERGY      -887.843084738031
FINAL SINGLE POINT ENERGY      -887.843406157312
FINAL SINGLE POINT ENERGY      -887.843947298676
FINAL SINGLE POINT ENERGY      -887.843907654582
FINAL SINGLE POINT ENERGY      -887.844007345680
FINAL SINGLE POINT ENERGY      -887.844005989708
Dispersion correction             ... done (  0.1 sec)
Dispersion correction           -0.085509503
FINAL SINGLE POINT ENERGY      -887.844011210159
Dispersion correction             ... done (  0.1 sec)
Dispersion correction           -0.085503022
FINAL SINGLE POINT ENERGY      -887.844013598024
Dispersion correction             ... done (  0.1 sec)
                    ***********************HURRAY********************

CARTESIAN COORDINATES (ANGSTROEM)
---------------------------------
  C     -0.223559    1.555648    1.730174
  C     -0.500601    1.777614    0.237809
  C      0.486605    2.837628   -0.289414
  C     -1.933912    2.297188    0.039796
  P     -0.234914    0.279182   -0.929770
  C      1.399913   -0.366531   -0.337875
  C      2.485057   -0.173636   -1.211339
  C      3.773343   -0.602183   -0.876044
  C      3.999133   -1.248898    0.340816
  C      2.930786   -1.458337    1.219021
  C      1.648420   -1.017401    0.885064
  C     -1.492837   -1.113663   -0.528393
  C     -1.945780   -1.300024    0.925735
  C     -2.730681   -0.812515   -1.398669
  C     -0.856982   -2.419251   -1.040676
  H      0.821291    1.264654    1.907846
  H     -0.874158    0.790376    2.172835
  H     -0.400137    2.497764    2.279412
  H      0.380865    3.768745    0.294189
  H      1.530612    2.499880   -0.195038
  H      0.298833    3.073676   -1.348391
  H     -2.042994    3.281725    0.526910
  H     -2.176602    2.423061   -1.027552
  H     -2.683764    1.627204    0.485947
  H      2.307959    0.318489   -2.171526
  H      4.600038   -0.436434   -1.571870
  H      5.002882   -1.591727    0.605009
  H      3.097719   -1.965086    2.173314
  H      0.835358   -1.184546    1.590658
  H     -1.112654   -1.529211    1.604167
  H     -2.652639   -2.146987    0.982813
  H     -2.469548   -0.414727    1.313238
  H     -2.456498   -0.710983   -2.459846
  H     -3.459167   -1.637309   -1.309253
  H     -3.238604    0.113235   -1.092722
  H     -0.023859   -2.752048   -0.405656
  H     -1.617281   -3.219316   -1.053678
  H     -0.471643   -2.305256   -2.067042

 Multiplicity           Mult            ....    1
 Number of Electrons    NEL             ....  122
 Basis Dimension        Dim             ....  329

ORBITAL ENERGIES
----------------

  NO   OCC          E(Eh)            E(eV)
   0   2.0000     -77.032721     -2096.1669
   1   2.0000     -10.196580      -277.4630
   2   2.0000     -10.195594      -277.4362
   3   2.0000     -10.190882      -277.3080
   4   2.0000     -10.190271      -277.2914
   5   2.0000     -10.189800      -277.2786
   6   2.0000     -10.188799      -277.2513
   7   2.0000     -10.188083      -277.2318
   8   2.0000     -10.187414      -277.2136
   9   2.0000     -10.177992      -276.9572
  10   2.0000     -10.176976      -276.9296
  11   2.0000     -10.173332      -276.8304
  12   2.0000     -10.173217      -276.8273
  13   2.0000     -10.172185      -276.7992
  14   2.0000     -10.171457      -276.7794
  15   2.0000      -6.528528      -177.6503
  16   2.0000      -4.694175      -127.7350
  17   2.0000      -4.693645      -127.7206
  18   2.0000      -4.690809      -127.6434
  19   2.0000      -0.845157       -22.9979
  20   2.0000      -0.807442       -21.9716
  21   2.0000      -0.790974       -21.5235
  22   2.0000      -0.739122       -20.1125
  23   2.0000      -0.735772       -20.0214
  24   2.0000      -0.678664       -18.4674
  25   2.0000      -0.675817       -18.3899
  26   2.0000      -0.668917       -18.2021
  27   2.0000      -0.668541       -18.1919
  28   2.0000      -0.628077       -17.0909
  29   2.0000      -0.596332       -16.2270
  30   2.0000      -0.576603       -15.6902
  31   2.0000      -0.536411       -14.5965
  32   2.0000      -0.522484       -14.2175
  33   2.0000      -0.491352       -13.3704
  34   2.0000      -0.456942       -12.4340
  35   2.0000      -0.453648       -12.3444
  36   2.0000      -0.449504       -12.2316
  37   2.0000      -0.442780       -12.0486
  38   2.0000      -0.434012       -11.8101
  39   2.0000      -0.430055       -11.7024
  40   2.0000      -0.423528       -11.5248
  41   2.0000      -0.420407       -11.4398
  42   2.0000      -0.412896       -11.2355
  43   2.0000      -0.391658       -10.6576
  44   2.0000      -0.384000       -10.4492
  45   2.0000      -0.379979       -10.3398
  46   2.0000      -0.373244       -10.1565
  47   2.0000      -0.372386       -10.1331
  48   2.0000      -0.365661        -9.9501
  49   2.0000      -0.360261        -9.8032
  50   2.0000      -0.359288        -9.7767
  51   2.0000      -0.344170        -9.3654
  52   2.0000      -0.339246        -9.2314
  53   2.0000      -0.332770        -9.0551
  54   2.0000      -0.326874        -8.8947
  55   2.0000      -0.323609        -8.8058
  56   2.0000      -0.297308        -8.0901
  57   2.0000      -0.284327        -7.7369
  58   2.0000      -0.253999        -6.9117
  59   2.0000      -0.249656        -6.7935
  60   2.0000      -0.210911        -5.7392
  61   0.0000      -0.020045        -0.5455
  62   0.0000      -0.008334        -0.2268
  63   0.0000       0.052036         1.4160
  64   0.0000       0.052941         1.4406
  65   0.0000       0.070045         1.9060

MULLIKEN ATOMIC CHARGES
-----------------------
   0 C :    0.096700
   1 C :   -0.403959
   2 C :    0.081925
   3 C :    0.080735
   4 P :    0.278950
   5 C :   -0.138201
   6 C :    0.026722
   7 C :    0.023722
   8 C :    0.021755
   9 C :    0.019986
  10 C :    0.023189
  11 C :   -0.413774
  12 C :    0.103786
  13 C :    0.094213
  14 C :    0.088051
  15 H :    0.018882
  16 H :   -0.009676
  17 H :   -0.004077
  18 H :    0.001248
  19 H :    0.016302
  20 H :    0.011660
  21 H :    0.000199
  22 H :    0.017815
  23 H :    0.013687
  24 H :   -0.017994
  25 H :   -0.017082
  26 H :   -0.015887
  27 H :   -0.021839
  28 H :   -0.026723
  29 H :    0.002320
  30 H :   -0.003999
  31 H :    0.013428
  32 H :    0.012360
  33 H :   -0.000066
  34 H :   -0.001893
  35 H :    0.013758
  36 H :    0.001176
  37 H :    0.012598
Sum of atomic charges:   -0.0000000

LOEWDIN ATOMIC CHARGES
----------------------
   0 C :   -0.052997
   1 C :   -0.170324
   2 C :   -0.053867
   3 C :   -0.052400
   4 P :    0.494389
   5 C :   -0.173199
   6 C :   -0.028313
   7 C :   -0.028190
   8 C :   -0.021387
   9 C :   -0.029517
  10 C :   -0.028981
  11 C :   -0.176034
  12 C :   -0.049821
  13 C :   -0.054024
  14 C :   -0.051295
  15 H :    0.023101
  16 H :    0.017445
  17 H :    0.019627
  18 H :    0.019015
  19 H :    0.021717
  20 H :    0.019395
  21 H :    0.021267
  22 H :    0.020959
  23 H :    0.016228
  24 H :    0.022327
  25 H :    0.027003
  26 H :    0.026768
  27 H :    0.026143
  28 H :    0.020356
  29 H :    0.015995
  30 H :    0.021001
  31 H :    0.017575
  32 H :    0.020714
  33 H :    0.018269
  34 H :    0.017882
  35 H :    0.021592
  36 H :    0.019497
  37 H :    0.022083

  Mayer bond orders larger than 0.100000
B(  0-C ,  1-C ) :   1.0207 B(  0-C , 15-H ) :   0.9545 B(  0-C , 16-H ) :   0.9597
B(  0-C , 17-H ) :   0.9504 B(  1-C ,  2-C ) :   1.0171 B(  1-C ,  3-C ) :   1.0317
B(  1-C ,  4-P ) :   0.9410 B(  2-C , 18-H ) :   0.9559 B(  2-C , 19-H ) :   0.9638
B(  2-C , 20-H ) :   0.9605 B(  3-C , 21-H ) :   0.9513 B(  3-C , 22-H ) :   0.9570
B(  3-C , 23-H ) :   0.9593 B(  4-P ,  5-C ) :   0.9296 B(  4-P , 11-C ) :   0.9261
B(  5-C ,  6-C ) :   1.3911 B(  5-C , 10-C ) :   1.3511 B(  6-C ,  7-C ) :   1.3808
B(  6-C , 24-H ) :   0.9793 B(  7-C ,  8-C ) :   1.3861 B(  7-C , 25-H ) :   0.9858
B(  8-C ,  9-C ) :   1.3691 B(  8-C , 26-H ) :   0.9848 B(  9-C , 10-C ) :   1.4062
B(  9-C , 27-H ) :   0.9838 B( 10-C , 28-H ) :   0.9750 B( 11-C , 12-C ) :   1.0180
B( 11-C , 13-C ) :   1.0215 B( 11-C , 14-C ) :   1.0310 B( 12-C , 29-H ) :   0.9618
B( 12-C , 30-H ) :   0.9430 B( 12-C , 31-H ) :   0.9563 B( 13-C , 32-H ) :   0.9604
B( 13-C , 33-H ) :   0.9569 B( 13-C , 34-H ) :   0.9619 B( 14-C , 35-H ) :   0.9587
B( 14-C , 36-H ) :   0.9566 B( 14-C , 37-H ) :   0.9584

Dispersion correction           -0.085509234
FINAL SINGLE POINT ENERGY      -887.844014115919

DIPOLE MOMENT
-------------

Method             : SCF
Type of density    : Electron Density
Multiplicity       :   1
Irrep              :   0
Energy             :  -887.7585048815599293 Eh
Relativity type    :
Basis              : AO
                                X                 Y                 Z
Electronic contribution:     12.751219298      -2.833089702      -4.479892270
Nuclear contribution   :    -12.724570003       2.721124515       4.891763789
                        -----------------------------------------
Total Dipole Moment    :      0.026649295      -0.111965187       0.411871519
                        -----------------------------------------
Magnitude (a.u.)       :      0.427650016
Magnitude (Debye)      :      1.086999955

Rotational constants in cm-1:             0.024476             0.014404             0.011680
Rotational constants in MHz :           733.769801           431.807820           350.163997

                             ****ORCA TERMINATED NORMALLY****
TOTAL RUN TIME: 0 days 0 hours 9 minutes 15 seconds 828 msec
