                         Program Version 6.0.0  -   RELEASE   -
|  1> ! RIJCOSX M062X def2-TZVP D3ZERO NormalSCF
|  2> %pal
|  3> nprocs 6
|  4> end
|  5>
|  6> * xyz 0 1
|  7>   C          -1.92699929355893     -2.07555723452924      0.11869434347009
|  8>   C          -1.39878047688914     -0.76720997911395     -0.47971209188353
|  9>   P          -0.16483357520569      0.11153959372760      0.63366272966192
| 10>   C           1.35597289112650     -0.93150486635220      0.26857367456481
| 11>   C           2.60154839230174     -0.47266654073607      1.03424828808473
| 12>   C           0.22044461188869      1.58908325582643     -0.46286456243370
| 13>   C          -0.86604401855192      2.66918186752779     -0.42439813649395
| 14>   H          -1.11809724782354     -2.82320553232228      0.25435213648804
| 15>   H          -2.69331444840834     -2.53898238244707     -0.53661932116151
| 16>   H          -2.38896293571873     -1.90507376854519      1.11292814017329
| 17>   H          -2.23902831813650     -0.05671296437013     -0.63520488124036
| 18>   H          -0.94128479500692     -0.94042083999414     -1.48010472845064
| 19>   H           1.09628704351166     -1.97239589213904      0.55866741504873
| 20>   H           1.54269003070184     -0.94642569930635     -0.82908381850672
| 21>   H           3.46545810207670     -1.14084857326380      0.83750069854601
| 22>   H           2.91010032413494      0.55338171432296      0.74466615655758
| 23>   H           2.42053773191402     -0.46611833914146      2.12884942887382
| 24>   H           1.18258012911851      2.00683654737692     -0.09572176769832
| 25>   H           0.40347816423123      1.24110682819729     -1.50469073473037
| 26>   H          -1.83416040009295      2.29417477356432     -0.81659170415427
| 27>   H          -0.58325533850575      3.54877070086839     -1.03907112862212
| 28>   H          -1.04433757310742      3.02304933084921      0.61191986390649
| 29> **                         ****END OF INPUT****

CARTESIAN COORDINATES (ANGSTROEM)
---------------------------------
  C     -1.926999   -2.075557    0.118694
  C     -1.398780   -0.767210   -0.479712
  P     -0.164834    0.111540    0.633663
  C      1.355973   -0.931505    0.268574
  C      2.601548   -0.472667    1.034248
  C      0.220445    1.589083   -0.462865
  C     -0.866044    2.669182   -0.424398
  H     -1.118097   -2.823206    0.254352
  H     -2.693314   -2.538982   -0.536619
  H     -2.388963   -1.905074    1.112928
  H     -2.239028   -0.056713   -0.635205
  H     -0.941285   -0.940421   -1.480105
  H      1.096287   -1.972396    0.558667
  H      1.542690   -0.946426   -0.829084
  H      3.465458   -1.140849    0.837501
  H      2.910100    0.553382    0.744666
  H      2.420538   -0.466118    2.128849
  H      1.182580    2.006837   -0.095722
  H      0.403478    1.241107   -1.504691
  H     -1.834160    2.294175   -0.816592
  H     -0.583255    3.548771   -1.039071
  H     -1.044338    3.023049    0.611920

 Total Charge           Charge          ....    0
 Multiplicity           Mult            ....    1
 Number of Electrons    NEL             ....   66
 Basis Dimension        Dim             ....  313

ORBITAL ENERGIES
----------------

  NO   OCC          E(Eh)            E(eV)
   0   2.0000     -78.011554     -2122.8023
   1   2.0000     -10.538267      -286.7608
   2   2.0000     -10.538253      -286.7604
   3   2.0000     -10.538190      -286.7587
   4   2.0000     -10.532863      -286.6138
   5   2.0000     -10.532802      -286.6121
   6   2.0000     -10.532799      -286.6120
   7   2.0000      -6.827612      -185.7888
   8   2.0000      -4.942001      -134.4787
   9   2.0000      -4.941753      -134.4719
  10   2.0000      -4.941748      -134.4718
  11   2.0000      -0.878698       -23.9106
  12   2.0000      -0.843551       -22.9542
  13   2.0000      -0.843467       -22.9519
  14   2.0000      -0.739081       -20.1114
  15   2.0000      -0.689422       -18.7601
  16   2.0000      -0.689332       -18.7577
  17   2.0000      -0.592419       -16.1205
  18   2.0000      -0.512988       -13.9591
  19   2.0000      -0.512829       -13.9548
  20   2.0000      -0.511815       -13.9272
  21   2.0000      -0.492026       -13.3887
  22   2.0000      -0.491952       -13.3867
  23   2.0000      -0.453044       -12.3280
  24   2.0000      -0.433875       -11.8063
  25   2.0000      -0.429089       -11.6761
  26   2.0000      -0.429008       -11.6739
  27   2.0000      -0.418796       -11.3960
  28   2.0000      -0.402366       -10.9489
  29   2.0000      -0.402360       -10.9488
  30   2.0000      -0.347981        -9.4690
  31   2.0000      -0.347949        -9.4682
  32   2.0000      -0.273042        -7.4298
  33   0.0000       0.060399         1.6436
  34   0.0000       0.060440         1.6446
  35   0.0000       0.068713         1.8698
  36   0.0000       0.095683         2.6037
  37   0.0000       0.095860         2.6085

MULLIKEN ATOMIC CHARGES
-----------------------
   0 C :   -0.431346
   1 C :   -0.362584
   2 P :    0.198011
   3 C :   -0.363270
   4 C :   -0.431025
   5 C :   -0.363491
   6 C :   -0.431153
   7 H :    0.139389
   8 H :    0.143553
   9 H :    0.149158
  10 H :    0.147087
  11 H :    0.148535
  12 H :    0.147354
  13 H :    0.148679
  14 H :    0.143605
  15 H :    0.139568
  16 H :    0.149198
  17 H :    0.147439
  18 H :    0.148910
  19 H :    0.139604
  20 H :    0.143437
  21 H :    0.149342
Sum of atomic charges:   -0.0000000

LOEWDIN ATOMIC CHARGES
----------------------
   0 C :   -0.352896
   1 C :   -0.447417
   2 P :    0.536987
   3 C :   -0.447473
   4 C :   -0.352958
   5 C :   -0.447500
   6 C :   -0.352807
   7 H :    0.118637
   8 H :    0.121729
   9 H :    0.123591
  10 H :    0.131667
  11 H :    0.125620
  12 H :    0.131758
  13 H :    0.125597
  14 H :    0.121749
  15 H :    0.118720
  16 H :    0.123613
  17 H :    0.131730
  18 H :    0.125581
  19 H :    0.118722
  20 H :    0.121737
  21 H :    0.123613

  Mayer bond orders larger than 0.100000
B(  0-C ,  1-C ) :   0.9362 B(  0-C ,  7-H ) :   0.9772 B(  0-C ,  8-H ) :   0.9733
B(  0-C ,  9-H ) :   0.9699 B(  1-C ,  2-P ) :   0.9619 B(  1-C , 10-H ) :   0.9512
B(  1-C , 11-H ) :   0.9526 B(  2-P ,  3-C ) :   0.9621 B(  2-P ,  5-C ) :   0.9620
B(  3-C ,  4-C ) :   0.9372 B(  3-C , 12-H ) :   0.9511 B(  3-C , 13-H ) :   0.9524
B(  4-C , 14-H ) :   0.9732 B(  4-C , 15-H ) :   0.9770 B(  4-C , 16-H ) :   0.9699
B(  5-C ,  6-C ) :   0.9366 B(  5-C , 17-H ) :   0.9511 B(  5-C , 18-H ) :   0.9528
B(  6-C , 19-H ) :   0.9771 B(  6-C , 20-H ) :   0.9735 B(  6-C , 21-H ) :   0.9698

Dispersion correction           -0.000676516
FINAL SINGLE POINT ENERGY      -578.975929345558

DIPOLE MOMENT
-------------

Method             : SCF
Type of density    : Electron Density
Multiplicity       :   1
Irrep              :   0
Energy             :  -578.9752528296050968 Eh
Relativity type    :
Basis              : AO
                                X                 Y                 Z
Electronic contribution:     -0.764778741       0.524427276       2.945641796
Nuclear contribution   :      0.882851684      -0.601627736      -3.396658680
                        -----------------------------------------
Total Dipole Moment    :      0.118072943      -0.077200460      -0.451016884
                        -----------------------------------------
Magnitude (a.u.)       :      0.472564663
Magnitude (Debye)      :      1.201163915

Rotational constants in cm-1:             0.060671             0.060443             0.033330
Rotational constants in MHz :          1818.882550          1812.021332           999.203064

                             ****ORCA TERMINATED NORMALLY****
TOTAL RUN TIME: 0 days 0 hours 0 minutes 22 seconds 354 msec
