                         Program Version 6.0.0  -   RELEASE   -
|  1> ! RI BP86 def2-SVP D3BJ TIGHTSCF Opt
|  2> %pal
|  3> nprocs 6
|  4> end
|  5>
|  6> * xyz 0 1
|  7> C      0.571425    3.353790   -0.049760
|  8> C     -0.445996    2.268771    0.250363
|  9> P     -0.215489    0.759911   -0.750597
| 10> O     -0.193381    1.177111   -2.207605
| 11> C     -1.553020   -0.372017   -0.382455
| 12> C     -2.207586   -0.397419    0.856537
| 13> C     -3.240056   -1.307283    1.095917
| 14> C     -3.630250   -2.200685    0.100483
| 15> C     -2.990308   -2.185641   -1.136121
| 16> C     -1.958931   -1.277146   -1.375049
| 17> C      1.316557    0.010857   -0.207507
| 18> C      2.386417   -0.104412   -1.106663
| 19> C      3.594486   -0.676490   -0.707162
| 20> C      3.746577   -1.140911    0.597208
| 21> C      2.691645   -1.034007    1.501307
| 22> C      1.482815   -0.460847    1.101926
| 23> H      1.586997    3.002364    0.154556
| 24> H      0.525642    3.647994   -1.102518
| 25> H      0.381888    4.238697    0.564891
| 26> H     -0.394029    2.012135    1.313043
| 27> H     -1.452036    2.653621    0.051108
| 28> H     -1.924062    0.286872    1.650625
| 29> H     -3.742557   -1.319280    2.059994
| 30> H     -4.434738   -2.907370    0.287096
| 31> H     -3.294256   -2.878491   -1.916612
| 32> H     -1.466315   -1.266167   -2.346638
| 33> H      2.274198    0.256059   -2.128462
| 34> H      4.415030   -0.760253   -1.415222
| 35> H      4.687007   -1.588585    0.908074
| 36> H      2.810618   -1.400526    2.517876
| 37> H      0.671710   -0.390652    1.821365
| 38> **                         ****END OF INPUT****
 Total Charge           Charge          ....    0
 Multiplicity           Mult            ....    1
 Number of Electrons    NEL             ....  122
Dispersion correction           -0.068098331
FINAL SINGLE POINT ENERGY      -958.667478863899
Dispersion correction             ... done (  0.1 sec)
Dispersion correction           -0.067904897
FINAL SINGLE POINT ENERGY      -958.674128366053
Dispersion correction             ... done (  0.1 sec)
Dispersion correction           -0.067874205
FINAL SINGLE POINT ENERGY      -958.675652461548
Dispersion correction             ... done (  0.1 sec)
FINAL SINGLE POINT ENERGY      -958.675992556538
FINAL SINGLE POINT ENERGY      -958.676086733343
FINAL SINGLE POINT ENERGY      -958.676117544094
FINAL SINGLE POINT ENERGY      -958.676130745941
FINAL SINGLE POINT ENERGY      -958.676135860904
FINAL SINGLE POINT ENERGY      -958.676138593915
FINAL SINGLE POINT ENERGY      -958.676140660788
FINAL SINGLE POINT ENERGY      -958.676142517222
Dispersion correction             ... done (  0.1 sec)
Dispersion correction           -0.067673771
FINAL SINGLE POINT ENERGY      -958.676143737223
Dispersion correction             ... done (  0.1 sec)
Dispersion correction           -0.067661222
FINAL SINGLE POINT ENERGY      -958.676144543496
Dispersion correction             ... done (  0.1 sec)
                    ***********************HURRAY********************

CARTESIAN COORDINATES (ANGSTROEM)
---------------------------------
  C      0.573655    3.332810   -0.084261
  C     -0.495456    2.272513    0.198694
  P     -0.203167    0.760336   -0.812747
  O     -0.096454    1.016454   -2.307970
  C     -1.562684   -0.397101   -0.397211
  C     -2.023878   -0.642698    0.912497
  C     -3.068387   -1.554941    1.129342
  C     -3.657207   -2.222769    0.041267
  C     -3.204692   -1.973647   -1.265546
  C     -2.161364   -1.061089   -1.486611
  C      1.339810    0.021278   -0.143986
  C      2.360257   -0.234116   -1.080645
  C      3.578955   -0.787956   -0.656811
  C      3.782329   -1.085720    0.701074
  C      2.765595   -0.829757    1.638415
  C      1.545977   -0.277172    1.218187
  H      1.577350    2.986524    0.236264
  H      0.622435    3.545448   -1.170471
  H      0.350674    4.278013    0.449874
  H     -0.533596    1.994968    1.273697
  H     -1.509583    2.627429   -0.083276
  H     -1.577615   -0.120151    1.772709
  H     -3.427367   -1.743892    2.152709
  H     -4.476094   -2.937915    0.214241
  H     -3.669834   -2.491482   -2.118480
  H     -1.792968   -0.836269   -2.499820
  H      2.169615    0.014690   -2.136462
  H      4.375301   -0.987255   -1.390450
  H      4.738115   -1.519437    1.033264
  H      2.924633   -1.062755    2.702521
  H      0.755648   -0.084338    1.959988

 Multiplicity           Mult            ....    1
 Number of Electrons    NEL             ....  122
 Basis Dimension        Dim             ....  303

ORBITAL ENERGIES
----------------

  NO   OCC          E(Eh)            E(eV)
   0   2.0000     -76.411725     -2079.2688
   1   2.0000     -18.715888      -509.2852
   2   2.0000      -9.935624      -270.3621
   3   2.0000      -9.934207      -270.3235
   4   2.0000      -9.930765      -270.2299
   5   2.0000      -9.930502      -270.2227
   6   2.0000      -9.929836      -270.2046
   7   2.0000      -9.929587      -270.1978
   8   2.0000      -9.928463      -270.1672
   9   2.0000      -9.928127      -270.1581
  10   2.0000      -9.927905      -270.1520
  11   2.0000      -9.926968      -270.1265
  12   2.0000      -9.926936      -270.1257
  13   2.0000      -9.926876      -270.1240
  14   2.0000      -9.925569      -270.0885
  15   2.0000      -9.916286      -269.8358
  16   2.0000      -6.370648      -173.3541
  17   2.0000      -4.591991      -124.9544
  18   2.0000      -4.591840      -124.9503
  19   2.0000      -4.591389      -124.9380
  20   2.0000      -0.849869       -23.1261
  21   2.0000      -0.779839       -21.2205
  22   2.0000      -0.777712       -21.1626
  23   2.0000      -0.705558       -19.1992
  24   2.0000      -0.681284       -18.5387
  25   2.0000      -0.677755       -18.4426
  26   2.0000      -0.676466       -18.4076
  27   2.0000      -0.675221       -18.3737
  28   2.0000      -0.590219       -16.0607
  29   2.0000      -0.555206       -15.1079
  30   2.0000      -0.548538       -14.9265
  31   2.0000      -0.546331       -14.8664
  32   2.0000      -0.541024       -14.7220
  33   2.0000      -0.498007       -13.5515
  34   2.0000      -0.473713       -12.8904
  35   2.0000      -0.454746       -12.3743
  36   2.0000      -0.417720       -11.3667
  37   2.0000      -0.412525       -11.2254
  38   2.0000      -0.411961       -11.2100
  39   2.0000      -0.407722       -11.0947
  40   2.0000      -0.403897       -10.9906
  41   2.0000      -0.394858       -10.7446
  42   2.0000      -0.383161       -10.4263
  43   2.0000      -0.380638       -10.3577
  44   2.0000      -0.374523       -10.1913
  45   2.0000      -0.351094        -9.5537
  46   2.0000      -0.340995        -9.2790
  47   2.0000      -0.338659        -9.2154
  48   2.0000      -0.336562        -9.1583
  49   2.0000      -0.319103        -8.6832
  50   2.0000      -0.316932        -8.6241
  51   2.0000      -0.310024        -8.4362
  52   2.0000      -0.304974        -8.2988
  53   2.0000      -0.299182        -8.1412
  54   2.0000      -0.294754        -8.0207
  55   2.0000      -0.246142        -6.6979
  56   2.0000      -0.241277        -6.5655
  57   2.0000      -0.239183        -6.5085
  58   2.0000      -0.235396        -6.4054
  59   2.0000      -0.219245        -5.9660
  60   2.0000      -0.216643        -5.8952
  61   0.0000      -0.071375        -1.9422
  62   0.0000      -0.055318        -1.5053
  63   0.0000      -0.052081        -1.4172
  64   0.0000      -0.047732        -1.2989
  65   0.0000       0.014116         0.3841

MULLIKEN ATOMIC CHARGES
-----------------------
   0 C :   -0.043508
   1 C :   -0.171824
   2 P :    0.537743
   3 O :   -0.457294
   4 C :   -0.089988
   5 C :   -0.019041
   6 C :    0.001123
   7 C :    0.008015
   8 C :    0.003462
   9 C :   -0.000443
  10 C :   -0.112767
  11 C :   -0.001525
  12 C :    0.003387
  13 C :    0.007848
  14 C :   -0.000605
  15 C :   -0.006794
  16 H :    0.045773
  17 H :    0.058276
  18 H :    0.041339
  19 H :    0.042975
  20 H :    0.070071
  21 H :   -0.003588
  22 H :    0.005082
  23 H :    0.009559
  24 H :    0.011062
  25 H :    0.024464
  26 H :    0.024558
  27 H :    0.010345
  28 H :    0.008941
  29 H :    0.004573
  30 H :   -0.011219
Sum of atomic charges:   -0.0000000

LOEWDIN ATOMIC CHARGES
----------------------
   0 C :   -0.079848
   1 C :   -0.192715
   2 P :    0.884538
   3 O :   -0.496402
   4 C :   -0.184356
   5 C :   -0.035756
   6 C :   -0.029401
   7 C :   -0.021432
   8 C :   -0.025990
   9 C :   -0.015845
  10 C :   -0.184245
  11 C :   -0.017753
  12 C :   -0.026839
  13 C :   -0.022141
  14 C :   -0.029679
  15 C :   -0.034715
  16 H :    0.033320
  17 H :    0.038195
  18 H :    0.033408
  19 H :    0.028977
  20 H :    0.041541
  21 H :    0.025116
  22 H :    0.034213
  23 H :    0.034915
  24 H :    0.035984
  25 H :    0.038815
  26 H :    0.038503
  27 H :    0.035588
  28 H :    0.034629
  29 H :    0.033940
  30 H :    0.025434

  Mayer bond orders larger than 0.100000
B(  0-C ,  1-C ) :   1.0870 B(  0-C , 16-H ) :   0.9668 B(  0-C , 17-H ) :   0.9590
B(  0-C , 18-H ) :   0.9612 B(  1-C ,  2-P ) :   0.9322 B(  1-C , 19-H ) :   0.9092
B(  1-C , 20-H ) :   0.9287 B(  2-P ,  3-O ) :   1.8739 B(  2-P ,  4-C ) :   0.8569
B(  2-P , 10-C ) :   0.8576 B(  4-C ,  5-C ) :   1.3522 B(  4-C ,  9-C ) :   1.3935
B(  5-C ,  6-C ) :   1.4054 B(  5-C , 21-H ) :   0.9691 B(  6-C ,  7-C ) :   1.3795
B(  6-C , 22-H ) :   0.9739 B(  7-C ,  8-C ) :   1.3833 B(  7-C , 23-H ) :   0.9758
B(  8-C ,  9-C ) :   1.3665 B(  8-C , 24-H ) :   0.9787 B(  9-C , 25-H ) :   0.9693
B( 10-C , 11-C ) :   1.3965 B( 10-C , 15-C ) :   1.3459 B( 11-C , 12-C ) :   1.3627
B( 11-C , 26-H ) :   0.9687 B( 12-C , 13-C ) :   1.3849 B( 12-C , 27-H ) :   0.9789
B( 13-C , 14-C ) :   1.3769 B( 13-C , 28-H ) :   0.9757 B( 14-C , 15-C ) :   1.4072
B( 14-C , 29-H ) :   0.9745 B( 15-C , 30-H ) :   0.9707

Dispersion correction           -0.067660674
FINAL SINGLE POINT ENERGY      -958.676144764919

DIPOLE MOMENT
-------------

Method             : SCF
Type of density    : Electron Density
Multiplicity       :   1
Irrep              :   0
Energy             :  -958.6084840909716149 Eh
Relativity type    :
Basis              : AO
                                X                 Y                 Z
Electronic contribution:     -1.316897648      -4.348937482      -4.493906155
Nuclear contribution   :      1.249159943       4.024175713       5.861706056
                        -----------------------------------------
Total Dipole Moment    :     -0.067737705      -0.324761768       1.367799901
                        -----------------------------------------
Magnitude (a.u.)       :      1.407456988
Magnitude (Debye)      :      3.577471356

Rotational constants in cm-1:             0.023270             0.011347             0.009852
Rotational constants in MHz :           697.626424           340.182348           295.368576

                             ****ORCA TERMINATED NORMALLY****
TOTAL RUN TIME: 0 days 0 hours 2 minutes 52 seconds 620 msec
