                         Program Version 6.0.0  -   RELEASE   -
|  1> ! RIJCOSX M062X def2-TZVP D3ZERO NormalSCF
|  2> %pal
|  3> nprocs 6
|  4> end
|  5>
|  6> * xyz 0 1
|  7>   C          -1.05660576612809      2.23858922423136      1.28608322857684
|  8>   C          -0.80434436259954      0.77938076598531      1.66603315656669
|  9>   P          -0.16222620791677     -0.13811944955555      0.18496256633026
| 10>   O          -0.26494014902113      0.66426677913852     -1.11098757094043
| 11>   C           1.56176853002950     -0.62190848214162      0.59968393795950
| 12>   C           2.30316160511082     -1.09676362621412     -0.64675022156294
| 13>   C           3.79032945758365     -1.27588460810855     -0.41529654985640
| 14>   O           4.39848644295679     -0.97174717781795      0.59323880115311
| 15>   O           4.39615116659773     -1.82617906131375     -1.50259437996506
| 16>   C          -1.11401081124948     -1.73704498625643      0.05120263770054
| 17>   C          -2.09061279723683     -1.66132664439070     -1.12328717660310
| 18>   C          -3.17022194534636     -0.61938432081000     -0.92022454763043
| 19>   O          -3.36231936395730      0.01423716515819      0.10548365947975
| 20>   O          -3.93920794645379     -0.47026657765912     -2.02332084080462
| 21>   C           0.21798857316183      2.97729127945010      0.93428915044932
| 22>   O           1.35118355021954      2.57458740141560      1.14111278002273
| 23>   O          -0.03490006351682      4.18751883690039      0.38206003324422
| 24>   H          -1.54394222938341      2.78525378067126      2.12283769328525
| 25>   H          -1.74953373134316      2.30381667021690      0.42443760616556
| 26>   H          -1.75565851838889      0.30822099717011      1.97318352979389
| 27>   H          -0.06730178946603      0.69841762106481      2.49050055638952
| 28>   H           1.56052146780495     -1.38446642597298      1.40734110519566
| 29>   H           2.03932643396196      0.29345619971068      1.00302151512782
| 30>   H           2.16326677099665     -0.35613191086189     -1.46470286926170
| 31>   H           1.90134384778976     -2.05032420414813     -1.05243220225559
| 32>   H           5.34905552976018     -1.88325074937864     -1.26980490145238
| 33>   H          -0.38909287511989     -2.55891978599519     -0.11899477958226
| 34>   H          -1.63685417268757     -1.94491815306752      1.00678697601749
| 35>   H          -1.55499206319152     -1.39467665299524     -2.05735560277240
| 36>   H          -2.58663485387771     -2.63900394357620     -1.30671512865084
| 37>   H          -4.59578373648554      0.22520181302394     -1.79790361237727
| 38>   H           0.84659900739651      4.58007822612639      0.19625745025725
| 39> **                         ****END OF INPUT****

CARTESIAN COORDINATES (ANGSTROEM)
---------------------------------
  C     -1.056606    2.238589    1.286083
  C     -0.804344    0.779381    1.666033
  P     -0.162226   -0.138119    0.184963
  O     -0.264940    0.664267   -1.110988
  C      1.561769   -0.621908    0.599684
  C      2.303162   -1.096764   -0.646750
  C      3.790329   -1.275885   -0.415297
  O      4.398486   -0.971747    0.593239
  O      4.396151   -1.826179   -1.502594
  C     -1.114011   -1.737045    0.051203
  C     -2.090613   -1.661327   -1.123287
  C     -3.170222   -0.619384   -0.920225
  O     -3.362319    0.014237    0.105484
  O     -3.939208   -0.470267   -2.023321
  C      0.217989    2.977291    0.934289
  O      1.351184    2.574587    1.141113
  O     -0.034900    4.187519    0.382060
  H     -1.543942    2.785254    2.122838
  H     -1.749534    2.303817    0.424438
  H     -1.755659    0.308221    1.973184
  H     -0.067302    0.698418    2.490501
  H      1.560521   -1.384466    1.407341
  H      2.039326    0.293456    1.003022
  H      2.163267   -0.356132   -1.464703
  H      1.901344   -2.050324   -1.052432
  H      5.349056   -1.883251   -1.269805
  H     -0.389093   -2.558920   -0.118995
  H     -1.636854   -1.944918    1.006787
  H     -1.554992   -1.394677   -2.057356
  H     -2.586635   -2.639004   -1.306715
  H     -4.595784    0.225202   -1.797904
  H      0.846599    4.580078    0.196257

 Total Charge           Charge          ....    0
 Multiplicity           Mult            ....    1
 Number of Electrons    NEL             ....  140
 Basis Dimension        Dim             ....  623

ORBITAL ENERGIES
----------------

  NO   OCC          E(Eh)            E(eV)
   0   2.0000     -78.094653     -2125.0635
   1   2.0000     -19.685470      -535.6689
   2   2.0000     -19.678552      -535.4806
   3   2.0000     -19.674865      -535.3803
   4   2.0000     -19.633973      -534.2676
   5   2.0000     -19.624845      -534.0192
   6   2.0000     -19.622030      -533.9426
   7   2.0000     -19.569418      -532.5109
   8   2.0000     -10.694153      -291.0027
   9   2.0000     -10.684782      -290.7477
  10   2.0000     -10.682579      -290.6878
  11   2.0000     -10.573274      -287.7134
  12   2.0000     -10.567203      -287.5482
  13   2.0000     -10.565547      -287.5032
  14   2.0000     -10.562591      -287.4227
  15   2.0000     -10.555006      -287.2163
  16   2.0000     -10.551787      -287.1287
  17   2.0000      -6.901546      -187.8006
  18   2.0000      -5.018405      -136.5578
  19   2.0000      -5.018271      -136.5541
  20   2.0000      -5.017008      -136.5197
  21   2.0000      -1.243365       -33.8337
  22   2.0000      -1.234334       -33.5879
  23   2.0000      -1.232148       -33.5284
  24   2.0000      -1.148610       -31.2553
  25   2.0000      -1.140439       -31.0329
  26   2.0000      -1.137214       -30.9452
  27   2.0000      -1.063690       -28.9445
  28   2.0000      -0.909681       -24.7537
  29   2.0000      -0.897224       -24.4147
  30   2.0000      -0.892757       -24.2931
  31   2.0000      -0.809049       -22.0153
  32   2.0000      -0.771531       -20.9944
  33   2.0000      -0.763647       -20.7799
  34   2.0000      -0.690686       -18.7945
  35   2.0000      -0.673024       -18.3139
  36   2.0000      -0.665053       -18.0970
  37   2.0000      -0.611566       -16.6416
  38   2.0000      -0.598344       -16.2818
  39   2.0000      -0.592347       -16.1186
  40   2.0000      -0.584492       -15.9048
  41   2.0000      -0.581924       -15.8349
  42   2.0000      -0.579926       -15.7806
  43   2.0000      -0.575480       -15.6596
  44   2.0000      -0.566435       -15.4135
  45   2.0000      -0.561963       -15.2918
  46   2.0000      -0.552687       -15.0394
  47   2.0000      -0.518055       -14.0970
  48   2.0000      -0.514092       -13.9891
  49   2.0000      -0.503814       -13.7095
  50   2.0000      -0.495149       -13.4737
  51   2.0000      -0.493679       -13.4337
  52   2.0000      -0.479438       -13.0462
  53   2.0000      -0.468818       -12.7572
  54   2.0000      -0.463817       -12.6211
  55   2.0000      -0.459424       -12.5016
  56   2.0000      -0.445199       -12.1145
  57   2.0000      -0.439953       -11.9717
  58   2.0000      -0.432110       -11.7583
  59   2.0000      -0.418416       -11.3857
  60   2.0000      -0.411997       -11.2110
  61   2.0000      -0.407964       -11.1013
  62   2.0000      -0.405059       -11.0222
  63   2.0000      -0.402123       -10.9423
  64   2.0000      -0.398007       -10.8303
  65   2.0000      -0.372451       -10.1349
  66   2.0000      -0.363061        -9.8794
  67   2.0000      -0.360719        -9.8157
  68   2.0000      -0.334435        -9.1004
  69   2.0000      -0.332975        -9.0607
  70   0.0000       0.031200         0.8490
  71   0.0000       0.039565         1.0766
  72   0.0000       0.041891         1.1399
  73   0.0000       0.043744         1.1903
  74   0.0000       0.058021         1.5788

MULLIKEN ATOMIC CHARGES
-----------------------
   0 C :   -0.304721
   1 C :   -0.396285
   2 P :    0.638082
   3 O :   -0.615058
   4 C :   -0.416261
   5 C :   -0.348036
   6 C :    0.364433
   7 O :   -0.333746
   8 O :   -0.412622
   9 C :   -0.438942
  10 C :   -0.278880
  11 C :    0.382876
  12 O :   -0.375966
  13 O :   -0.401137
  14 C :    0.394285
  15 O :   -0.374184
  16 O :   -0.405585
  17 H :    0.176220
  18 H :    0.203004
  19 H :    0.193523
  20 H :    0.192557
  21 H :    0.180937
  22 H :    0.228637
  23 H :    0.215183
  24 H :    0.163167
  25 H :    0.340783
  26 H :    0.177683
  27 H :    0.191038
  28 H :    0.199613
  29 H :    0.178594
  30 H :    0.341176
  31 H :    0.339630
Sum of atomic charges:   -0.0000000

LOEWDIN ATOMIC CHARGES
----------------------
   0 C :   -0.251369
   1 C :   -0.356032
   2 P :    0.609623
   3 O :   -0.321083
   4 C :   -0.363757
   5 C :   -0.255802
   6 C :   -0.476571
   7 O :    0.084684
   8 O :    0.069672
   9 C :   -0.356783
  10 C :   -0.253987
  11 C :   -0.475818
  12 O :    0.073182
  13 O :    0.088489
  14 C :   -0.477691
  15 O :    0.070609
  16 O :    0.084617
  17 H :    0.161811
  18 H :    0.168033
  19 H :    0.146860
  20 H :    0.147655
  21 H :    0.145782
  22 H :    0.162477
  23 H :    0.174178
  24 H :    0.155032
  25 H :    0.207200
  26 H :    0.142379
  27 H :    0.146558
  28 H :    0.170460
  29 H :    0.160095
  30 H :    0.210253
  31 H :    0.209243

  Mayer bond orders larger than 0.100000
B(  0-C ,  1-C ) :   0.9099 B(  0-C , 14-C ) :   0.9689 B(  0-C , 17-H ) :   0.9500
B(  0-C , 18-H ) :   0.9403 B(  1-C ,  2-P ) :   0.8998 B(  1-C , 19-H ) :   0.9520
B(  1-C , 20-H ) :   0.9400 B(  2-P ,  3-O ) :   1.8128 B(  2-P ,  4-C ) :   0.9222
B(  2-P ,  9-C ) :   0.9006 B(  4-C ,  5-C ) :   0.9005 B(  4-C , 21-H ) :   0.9453
B(  4-C , 22-H ) :   0.9353 B(  5-C ,  6-C ) :   0.9713 B(  5-C , 23-H ) :   0.9339
B(  5-C , 24-H ) :   0.9544 B(  6-C ,  7-O ) :   2.0547 B(  6-C ,  8-O ) :   1.1993
B(  8-O , 25-H ) :   0.8571 B(  9-C , 10-C ) :   0.8997 B(  9-C , 26-H ) :   0.9624
B(  9-C , 27-H ) :   0.9470 B( 10-C , 11-C ) :   0.9776 B( 10-C , 28-H ) :   0.9352
B( 10-C , 29-H ) :   0.9516 B( 11-C , 12-O ) :   1.9463 B( 11-C , 13-O ) :   1.2125
B( 13-O , 30-H ) :   0.8556 B( 14-C , 15-O ) :   1.9520 B( 14-C , 16-O ) :   1.2024
B( 16-O , 31-H ) :   0.8572

Dispersion correction           -0.001959491
FINAL SINGLE POINT ENERGY     -1220.032317236044

DIPOLE MOMENT
-------------

Method             : SCF
Type of density    : Electron Density
Multiplicity       :   1
Irrep              :   0
Energy             : -1220.0303577445995415 Eh
Relativity type    :
Basis              : AO
                                X                 Y                 Z
Electronic contribution:      2.388097218       4.082294690      -1.820767845
Nuclear contribution   :     -3.173984543      -5.001831144       1.964998518
                        -----------------------------------------
Total Dipole Moment    :     -0.785887324      -0.919536454       0.144230673
                        -----------------------------------------
Magnitude (a.u.)       :      1.218182525
Magnitude (Debye)      :      3.096373905

Rotational constants in cm-1:             0.015936             0.009163             0.006575
Rotational constants in MHz :           477.750407           274.687147           197.116186

                             ****ORCA TERMINATED NORMALLY****
TOTAL RUN TIME: 0 days 0 hours 1 minutes 29 seconds 847 msec
