                         Program Version 6.0.0  -   RELEASE   -
|  1> ! RIJONX B3LYP def2-SVP D3BJ TIGHTSCF Opt
|  2> %pal
|  3> nprocs 6
|  4> end
|  5>
|  6> * xyz 0 1
|  7> C      4.586660   -1.223055    0.850284
|  8> N      3.307638   -0.557506    0.587904
|  9> C      3.190267    0.635078    1.431106
| 10> C      3.193232   -0.233499   -0.843983
| 11> C      1.814418    0.291121   -1.272147
| 12> C      0.682804   -0.682737   -0.928467
| 13> P     -0.955876   -0.103563   -1.574306
| 14> C     -2.153549   -1.282760   -0.850162
| 15> C     -3.497273   -0.897906   -0.697293
| 16> C     -4.446929   -1.775166   -0.165727
| 17> C     -4.072818   -3.060871    0.210774
| 18> C     -2.752331   -3.469397    0.048795
| 19> C     -1.802929   -2.589869   -0.483088
| 20> C     -1.237388    1.382231   -0.548916
| 21> C     -1.434751    2.615051   -1.188411
| 22> C     -1.643134    3.780188   -0.445797
| 23> C     -1.656624    3.727660    0.945883
| 24> C     -1.462602    2.511116    1.595465
| 25> C     -1.253826    1.346103    0.853059
| 26> H      4.661925   -1.511676    1.904731
| 27> H      4.666385   -2.148338    0.268734
| 28> H      5.443181   -0.584825    0.604365
| 29> H      2.196345    1.085266    1.346747
| 30> H      3.940058    1.393966    1.180198
| 31> H      3.311173    0.370918    2.488072
| 32> H      3.389899   -1.140712   -1.430726
| 33> H      3.958280    0.498158   -1.135699
| 34> H      1.840293    0.457608   -2.357433
| 35> H      1.634588    1.274776   -0.823335
| 36> H      0.908553   -1.650700   -1.390037
| 37> H      0.628758   -0.840759    0.153515
| 38> H     -3.822126    0.098884   -0.990570
| 39> H     -5.477644   -1.450771   -0.050604
| 40> H     -4.809526   -3.745018    0.622696
| 41> H     -2.457005   -4.476516    0.331534
| 42> H     -0.787874   -2.955993   -0.605893
| 43> H     -1.428166    2.680020   -2.274526
| 44> H     -1.795557    4.727453   -0.956190
| 45> H     -1.820452    4.633323    1.523651
| 46> H     -1.476078    2.464856    2.681168
| 47> H     -1.110002    0.407861    1.384630
| 48> **                         ****END OF INPUT****
 Total Charge           Charge          ....    0
 Multiplicity           Mult            ....    1
 Number of Electrons    NEL             ....  146
Dispersion correction           -0.089443586
FINAL SINGLE POINT ENERGY     -1056.094562728528
Dispersion correction             ... done (  0.1 sec)
Dispersion correction           -0.090485112
FINAL SINGLE POINT ENERGY     -1056.098067588571
Dispersion correction             ... done (  0.1 sec)
Dispersion correction           -0.091190278
FINAL SINGLE POINT ENERGY     -1056.098967768961
Dispersion correction             ... done (  0.1 sec)
FINAL SINGLE POINT ENERGY     -1056.099201082229
FINAL SINGLE POINT ENERGY     -1056.099243321573
FINAL SINGLE POINT ENERGY     -1056.099348228140
FINAL SINGLE POINT ENERGY     -1056.099418371523
FINAL SINGLE POINT ENERGY     -1056.099526285464
FINAL SINGLE POINT ENERGY     -1056.099424313649
FINAL SINGLE POINT ENERGY     -1056.099584245761
FINAL SINGLE POINT ENERGY     -1056.099596400147
Dispersion correction             ... done (  0.1 sec)
Dispersion correction           -0.092477471
FINAL SINGLE POINT ENERGY     -1056.099600100591
Dispersion correction             ... done (  0.1 sec)
Dispersion correction           -0.092508418
FINAL SINGLE POINT ENERGY     -1056.099601170384
Dispersion correction             ... done (  0.1 sec)
                    ***********************HURRAY********************

CARTESIAN COORDINATES (ANGSTROEM)
---------------------------------
  C      4.089097   -0.748233    1.141269
  N      2.953918   -0.144177    0.476492
  C      2.668765    1.184397    0.983687
  C      3.068502   -0.201977   -0.973606
  C      1.756860    0.111726   -1.698929
  C      0.621517   -0.830248   -1.282975
  P     -1.058662   -0.126897   -1.699263
  C     -2.193427   -1.335687   -0.885160
  C     -3.566401   -1.025390   -0.882987
  C     -4.496754   -1.890385   -0.307728
  C     -4.074266   -3.097010    0.262524
  C     -2.716925   -3.423360    0.255473
  C     -1.782137   -2.548384   -0.310226
  C     -1.079310    1.236996   -0.440513
  C     -0.894243    2.555418   -0.884955
  C     -0.808777    3.612370    0.027883
  C     -0.923273    3.362510    1.397568
  C     -1.123391    2.053279    1.850703
  C     -1.198493    0.998751    0.939091
  H      3.922676   -0.770871    2.230307
  H      4.223406   -1.786254    0.797106
  H      5.047235   -0.205715    0.959356
  H      1.720706    1.568526    0.582231
  H      3.470444    1.921597    0.741122
  H      2.565253    1.148992    2.079261
  H      3.389133   -1.223733   -1.240482
  H      3.865466    0.484773   -1.347907
  H      1.928758    0.052265   -2.786104
  H      1.476006    1.158479   -1.499782
  H      0.723860   -1.800042   -1.798830
  H      0.692417   -1.018746   -0.199959
  H     -3.905657   -0.087998   -1.334048
  H     -5.557644   -1.626415   -0.308837
  H     -4.802450   -3.779557    0.708008
  H     -2.377302   -4.363583    0.698261
  H     -0.725614   -2.820118   -0.292010
  H     -0.813446    2.752538   -1.957724
  H     -0.658340    4.633201   -0.333088
  H     -0.861389    4.186782    2.112818
  H     -1.217147    1.853597    2.921509
  H     -1.348974   -0.021417    1.300446

 Multiplicity           Mult            ....    1
 Number of Electrons    NEL             ....  146
 Basis Dimension        Dim             ....  380

ORBITAL ENERGIES
----------------

  NO   OCC          E(Eh)            E(eV)
   0   2.0000     -77.042197     -2096.4248
   1   2.0000     -14.309851      -389.3908
   2   2.0000     -10.203103      -277.6406
   3   2.0000     -10.200919      -277.5811
   4   2.0000     -10.195577      -277.4358
   5   2.0000     -10.191775      -277.3323
   6   2.0000     -10.191113      -277.3143
   7   2.0000     -10.190710      -277.3033
   8   2.0000     -10.190074      -277.2860
   9   2.0000     -10.189012      -277.2571
  10   2.0000     -10.188589      -277.2456
  11   2.0000     -10.188456      -277.2420
  12   2.0000     -10.188138      -277.2333
  13   2.0000     -10.187870      -277.2260
  14   2.0000     -10.187641      -277.2198
  15   2.0000     -10.187341      -277.2117
  16   2.0000     -10.187161      -277.2067
  17   2.0000     -10.180645      -277.0294
  18   2.0000     -10.177444      -276.9423
  19   2.0000      -6.538584      -177.9239
  20   2.0000      -4.704185      -128.0074
  21   2.0000      -4.703808      -127.9971
  22   2.0000      -4.700998      -127.9207
  23   2.0000      -0.909943       -24.7608
  24   2.0000      -0.847814       -23.0702
  25   2.0000      -0.841694       -22.9037
  26   2.0000      -0.777611       -21.1599
  27   2.0000      -0.749033       -20.3822
  28   2.0000      -0.736773       -20.0486
  29   2.0000      -0.734187       -19.9782
  30   2.0000      -0.730740       -19.8844
  31   2.0000      -0.691830       -18.8257
  32   2.0000      -0.687149       -18.6983
  33   2.0000      -0.631858       -17.1937
  34   2.0000      -0.605974       -16.4894
  35   2.0000      -0.598109       -16.2754
  36   2.0000      -0.591159       -16.0862
  37   2.0000      -0.587925       -15.9983
  38   2.0000      -0.556222       -15.1356
  39   2.0000      -0.543225       -14.7819
  40   2.0000      -0.512316       -13.9408
  41   2.0000      -0.495242       -13.4762
  42   2.0000      -0.481173       -13.0934
  43   2.0000      -0.464571       -12.6416
  44   2.0000      -0.455895       -12.4055
  45   2.0000      -0.451201       -12.2778
  46   2.0000      -0.449107       -12.2208
  47   2.0000      -0.445772       -12.1301
  48   2.0000      -0.438856       -11.9419
  49   2.0000      -0.426855       -11.6153
  50   2.0000      -0.419713       -11.4210
  51   2.0000      -0.418502       -11.3880
  52   2.0000      -0.409005       -11.1296
  53   2.0000      -0.402776       -10.9601
  54   2.0000      -0.390823       -10.6348
  55   2.0000      -0.383633       -10.4392
  56   2.0000      -0.370453       -10.0805
  57   2.0000      -0.366315        -9.9679
  58   2.0000      -0.365058        -9.9337
  59   2.0000      -0.359172        -9.7736
  60   2.0000      -0.354987        -9.6597
  61   2.0000      -0.344464        -9.3733
  62   2.0000      -0.342909        -9.3310
  63   2.0000      -0.340046        -9.2531
  64   2.0000      -0.332747        -9.0545
  65   2.0000      -0.315919        -8.5966
  66   2.0000      -0.308269        -8.3884
  67   2.0000      -0.264986        -7.2106
  68   2.0000      -0.256951        -6.9920
  69   2.0000      -0.255332        -6.9479
  70   2.0000      -0.251772        -6.8511
  71   2.0000      -0.217183        -5.9099
  72   2.0000      -0.206560        -5.6208
  73   0.0000      -0.021572        -0.5870
  74   0.0000      -0.014507        -0.3948
  75   0.0000      -0.011991        -0.3263
  76   0.0000      -0.002375        -0.0646
  77   0.0000       0.054160         1.4738

MULLIKEN ATOMIC CHARGES
-----------------------
   0 C :    0.139666
   1 N :   -0.371975
   2 C :    0.125916
   3 C :    0.148202
   4 C :    0.057658
   5 C :   -0.162323
   6 P :    0.272395
   7 C :   -0.137527
   8 C :    0.023666
   9 C :    0.020855
  10 C :    0.020871
  11 C :    0.026706
  12 C :   -0.005358
  13 C :   -0.158117
  14 C :    0.026565
  15 C :    0.014978
  16 C :    0.021286
  17 C :    0.024493
  18 C :    0.036533
  19 H :    0.007485
  20 H :    0.006911
  21 H :   -0.023945
  22 H :    0.039013
  23 H :   -0.025669
  24 H :    0.004496
  25 H :   -0.014161
  26 H :   -0.027985
  27 H :   -0.000708
  28 H :    0.000770
  29 H :    0.033130
  30 H :    0.043128
  31 H :   -0.017830
  32 H :   -0.017041
  33 H :   -0.017595
  34 H :   -0.020486
  35 H :   -0.019332
  36 H :   -0.018578
  37 H :   -0.016555
  38 H :   -0.015657
  39 H :   -0.017771
  40 H :   -0.006110
Sum of atomic charges:   -0.0000000

LOEWDIN ATOMIC CHARGES
----------------------
   0 C :    0.017870
   1 N :   -0.129494
   2 C :    0.016837
   3 C :    0.034290
   4 C :   -0.046925
   5 C :   -0.172453
   6 P :    0.493047
   7 C :   -0.173138
   8 C :   -0.027386
   9 C :   -0.024576
  10 C :   -0.026715
  11 C :   -0.025567
  12 C :   -0.040528
  13 C :   -0.171228
  14 C :   -0.035143
  15 C :   -0.029026
  16 C :   -0.023588
  17 C :   -0.025917
  18 C :   -0.021752
  19 H :    0.017309
  20 H :    0.016906
  21 H :   -0.006060
  22 H :    0.022624
  23 H :   -0.005466
  24 H :    0.018667
  25 H :    0.014722
  26 H :   -0.004228
  27 H :    0.025039
  28 H :    0.016821
  29 H :    0.020006
  30 H :    0.015517
  31 H :    0.024408
  32 H :    0.026999
  33 H :    0.026099
  34 H :    0.026038
  35 H :    0.024099
  36 H :    0.022528
  37 H :    0.027079
  38 H :    0.026823
  39 H :    0.026902
  40 H :    0.028559

  Mayer bond orders larger than 0.100000
B(  0-C ,  1-N ) :   1.0342 B(  0-C , 19-H ) :   0.9714 B(  0-C , 20-H ) :   0.9706
B(  0-C , 21-H ) :   0.9439 B(  1-N ,  2-C ) :   1.0166 B(  1-N ,  3-C ) :   1.0228
B(  2-C , 22-H ) :   0.9699 B(  2-C , 23-H ) :   0.9409 B(  2-C , 24-H ) :   0.9686
B(  3-C ,  4-C ) :   1.0848 B(  3-C , 25-H ) :   0.9397 B(  3-C , 26-H ) :   0.9196
B(  4-C ,  5-C ) :   1.0454 B(  4-C , 27-H ) :   0.9280 B(  4-C , 28-H ) :   0.9330
B(  5-C ,  6-P ) :   0.9836 B(  5-C , 29-H ) :   0.9357 B(  5-C , 30-H ) :   0.9140
B(  6-P ,  7-C ) :   0.9140 B(  6-P , 13-C ) :   0.9296 B(  7-C ,  8-C ) :   1.3680
B(  7-C , 12-C ) :   1.3871 B(  8-C ,  9-C ) :   1.4185 B(  8-C , 31-H ) :   0.9802
B(  9-C , 10-C ) :   1.3678 B(  9-C , 32-H ) :   0.9844 B( 10-C , 11-C ) :   1.3928
B( 10-C , 33-H ) :   0.9843 B( 11-C , 12-C ) :   1.3785 B( 11-C , 34-H ) :   0.9821
B( 12-C , 35-H ) :   0.9785 B( 13-C , 14-C ) :   1.3882 B( 13-C , 18-C ) :   1.3736
B( 14-C , 15-C ) :   1.3819 B( 14-C , 36-H ) :   0.9796 B( 15-C , 16-C ) :   1.3881
B( 15-C , 37-H ) :   0.9862 B( 16-C , 17-C ) :   1.3670 B( 16-C , 38-H ) :   0.9851
B( 17-C , 18-C ) :   1.3995 B( 17-C , 39-H ) :   0.9839 B( 18-C , 40-H ) :   0.9757

Dispersion correction           -0.092499955
FINAL SINGLE POINT ENERGY     -1056.099601265828

DIPOLE MOMENT
-------------

Method             : SCF
Type of density    : Electron Density
Multiplicity       :   1
Irrep              :   0
Energy             : -1056.0071013109834439 Eh
Relativity type    :
Basis              : AO
                                X                 Y                 Z
Electronic contribution:    -20.380822112      -0.704534573      -6.830963477
Nuclear contribution   :     20.702692043       0.754439750       7.330566588
                        -----------------------------------------
Total Dipole Moment    :      0.321869931       0.049905177       0.499603111
                        -----------------------------------------
Magnitude (a.u.)       :      0.596400912
Magnitude (Debye)      :      1.515930644

Rotational constants in cm-1:             0.014486             0.008127             0.006442
Rotational constants in MHz :           434.275112           243.644341           193.118999

                             ****ORCA TERMINATED NORMALLY****
TOTAL RUN TIME: 0 days 0 hours 13 minutes 35 seconds 171 msec
