                         Program Version 6.0.0  -   RELEASE   -
|  1> ! RI BP86 def2-SVP D3BJ TIGHTSCF Opt
|  2> %pal
|  3> nprocs 6
|  4> end
|  5>
|  6> * xyz 0 1
|  7> C     -3.729370   -2.173660   -0.286316
|  8> C     -3.120356   -2.449742    0.935207
|  9> C     -1.975185   -1.749581    1.316305
| 10> C     -1.423406   -0.763206    0.482290
| 11> C     -2.047839   -0.497489   -0.744184
| 12> C     -3.194014   -1.198687   -1.125356
| 13> P      0.065966    0.101572    1.028670
| 14> O      0.146004    0.118837    2.551771
| 15> C      1.470962   -0.779198    0.314967
| 16> C      1.604135   -0.964094   -1.068388
| 17> C      2.696560   -1.658540   -1.591514
| 18> C      3.667823   -2.177987   -0.738213
| 19> C      3.549021   -2.003446    0.638615
| 20> C      2.457459   -1.308894    1.161717
| 21> C      0.047316    1.789915    0.350719
| 22> C     -0.143830    2.858270    1.227524
| 23> C     -0.158039    4.155538    0.723911
| 24> C      0.019452    4.358597   -0.638375
| 25> C      0.202415    3.250554   -1.446906
| 26> N      0.215887    1.978974   -0.990051
| 27> H     -4.621384   -2.718303   -0.584489
| 28> H     -3.535912   -3.209213    1.592465
| 29> H     -1.506395   -1.969732    2.274460
| 30> H     -1.648682    0.255783   -1.418613
| 31> H     -3.669096   -0.983374   -2.079201
| 32> H      0.859362   -0.560750   -1.750265
| 33> H      2.789476   -1.792368   -2.666194
| 34> H      4.517737   -2.718412   -1.146479
| 35> H      4.305092   -2.408135    1.306430
| 36> H      2.372020   -1.179786    2.239583
| 37> H     -0.275539    2.678676    2.291266
| 38> H     -0.303022    4.999940    1.392141
| 39> H      0.017310    5.357612   -1.059832
| 40> H      0.348072    3.360330   -2.518018
| 41> **                         ****END OF INPUT****
 Total Charge           Charge          ....    0
 Multiplicity           Mult            ....    1
 Number of Electrons    NEL             ....  146
Dispersion correction           -0.081319819
FINAL SINGLE POINT ENERGY     -1127.028291332415
Dispersion correction             ... done (  0.1 sec)
Dispersion correction           -0.081356813
FINAL SINGLE POINT ENERGY     -1127.034649084299
Dispersion correction             ... done (  0.1 sec)
Dispersion correction           -0.081350580
FINAL SINGLE POINT ENERGY     -1127.035986901304
Dispersion correction             ... done (  0.1 sec)
FINAL SINGLE POINT ENERGY     -1127.036327691019
FINAL SINGLE POINT ENERGY     -1127.036404345478
FINAL SINGLE POINT ENERGY     -1127.036435930315
FINAL SINGLE POINT ENERGY     -1127.036452640733
FINAL SINGLE POINT ENERGY     -1127.036468797191
Dispersion correction             ... done (  0.1 sec)
Dispersion correction           -0.081197937
FINAL SINGLE POINT ENERGY     -1127.036473768425
Dispersion correction             ... done (  0.1 sec)
Dispersion correction           -0.081202473
FINAL SINGLE POINT ENERGY     -1127.036477159913
Dispersion correction             ... done (  0.1 sec)
                    ***********************HURRAY********************

CARTESIAN COORDINATES (ANGSTROEM)
---------------------------------
  C     -3.745070   -2.193989   -0.277319
  C     -3.314951   -2.213395    1.060271
  C     -2.159988   -1.510079    1.437189
  C     -1.431400   -0.791012    0.468719
  C     -1.864874   -0.763704   -0.872945
  C     -3.022991   -1.466198   -1.240048
  P      0.073083    0.056564    1.075866
  O      0.175298    0.057597    2.593968
  C      1.501758   -0.757487    0.270814
  C      1.758196   -0.711412   -1.115044
  C      2.870820   -1.390331   -1.635502
  C      3.722893   -2.112987   -0.781361
  C      3.469441   -2.150407    0.600323
  C      2.361297   -1.470740    1.130089
  C      0.006108    1.764152    0.378190
  C      0.058787    2.835132    1.288197
  C      0.006338    4.139451    0.773641
  C     -0.095510    4.312762   -0.615697
  C     -0.140383    3.171756   -1.437057
  N     -0.091008    1.918291   -0.956942
  H     -4.651297   -2.745552   -0.571923
  H     -3.884113   -2.777255    1.815418
  H     -1.803938   -1.497547    2.479130
  H     -1.309498   -0.171421   -1.614511
  H     -3.366998   -1.443926   -2.285653
  H      1.102819   -0.122530   -1.773075
  H      3.076848   -1.353179   -2.716386
  H      4.592546   -2.646064   -1.195844
  H      4.140754   -2.709854    1.270012
  H      2.142702   -1.472521    2.209336
  H      0.137898    2.614517    2.363469
  H      0.044140    5.009942    1.446818
  H     -0.139787    5.317091   -1.062923
  H     -0.219920    3.274337   -2.533573

 Multiplicity           Mult            ....    1
 Number of Electrons    NEL             ....  146
 Basis Dimension        Dim             ....  354

ORBITAL ENERGIES
----------------

  NO   OCC          E(Eh)            E(eV)
   0   2.0000     -76.415422     -2079.3693
   1   2.0000     -18.720218      -509.4030
   2   2.0000     -14.031235      -381.8093
   3   2.0000      -9.966906      -271.2133
   4   2.0000      -9.962147      -271.0838
   5   2.0000      -9.950859      -270.7766
   6   2.0000      -9.944493      -270.6034
   7   2.0000      -9.940370      -270.4912
   8   2.0000      -9.925283      -270.0807
   9   2.0000      -9.925265      -270.0802
  10   2.0000      -9.924930      -270.0711
  11   2.0000      -9.924856      -270.0691
  12   2.0000      -9.924525      -270.0600
  13   2.0000      -9.924441      -270.0578
  14   2.0000      -9.923850      -270.0417
  15   2.0000      -9.923818      -270.0408
  16   2.0000      -9.923083      -270.0208
  17   2.0000      -9.923030      -270.0194
  18   2.0000      -9.922915      -270.0162
  19   2.0000      -9.922861      -270.0148
  20   2.0000      -6.374392      -173.4560
  21   2.0000      -4.595699      -125.0553
  22   2.0000      -4.595520      -125.0504
  23   2.0000      -4.595211      -125.0421
  24   2.0000      -0.873507       -23.7693
  25   2.0000      -0.851574       -23.1725
  26   2.0000      -0.774671       -21.0799
  27   2.0000      -0.772529       -21.0216
  28   2.0000      -0.738083       -20.0843
  29   2.0000      -0.704706       -19.1760
  30   2.0000      -0.682542       -18.5729
  31   2.0000      -0.671787       -18.2803
  32   2.0000      -0.671760       -18.2795
  33   2.0000      -0.669903       -18.2290
  34   2.0000      -0.597141       -16.2490
  35   2.0000      -0.579856       -15.7787
  36   2.0000      -0.559488       -15.2245
  37   2.0000      -0.545659       -14.8481
  38   2.0000      -0.542936       -14.7740
  39   2.0000      -0.536534       -14.5998
  40   2.0000      -0.506229       -13.7752
  41   2.0000      -0.476586       -12.9686
  42   2.0000      -0.468511       -12.7488
  43   2.0000      -0.454990       -12.3809
  44   2.0000      -0.445699       -12.1281
  45   2.0000      -0.417694       -11.3660
  46   2.0000      -0.409945       -11.1552
  47   2.0000      -0.407008       -11.0752
  48   2.0000      -0.401769       -10.9327
  49   2.0000      -0.397627       -10.8200
  50   2.0000      -0.388149       -10.5621
  51   2.0000      -0.386833       -10.5263
  52   2.0000      -0.378620       -10.3028
  53   2.0000      -0.375856       -10.2276
  54   2.0000      -0.366833        -9.9820
  55   2.0000      -0.363721        -9.8974
  56   2.0000      -0.348678        -9.4880
  57   2.0000      -0.336847        -9.1661
  58   2.0000      -0.331844        -9.0299
  59   2.0000      -0.318815        -8.6754
  60   2.0000      -0.311157        -8.4670
  61   2.0000      -0.305950        -8.3253
  62   2.0000      -0.302821        -8.2402
  63   2.0000      -0.297985        -8.1086
  64   2.0000      -0.279491        -7.6053
  65   2.0000      -0.255793        -6.9605
  66   2.0000      -0.247429        -6.7329
  67   2.0000      -0.241016        -6.5584
  68   2.0000      -0.233880        -6.3642
  69   2.0000      -0.233687        -6.3590
  70   2.0000      -0.229354        -6.2410
  71   2.0000      -0.220699        -6.0055
  72   2.0000      -0.215474        -5.8634
  73   0.0000      -0.086233        -2.3465
  74   0.0000      -0.071206        -1.9376
  75   0.0000      -0.066743        -1.8162
  76   0.0000      -0.049733        -1.3533
  77   0.0000      -0.042159        -1.1472

MULLIKEN ATOMIC CHARGES
-----------------------
   0 C :    0.009837
   1 C :   -0.000169
   2 C :   -0.002411
   3 C :   -0.120490
   4 C :   -0.001852
   5 C :    0.001531
   6 P :    0.652262
   7 O :   -0.453935
   8 C :   -0.120749
   9 C :   -0.002568
  10 C :    0.001431
  11 C :    0.009939
  12 C :   -0.000143
  13 C :   -0.002090
  14 C :   -0.164526
  15 C :    0.026004
  16 C :    0.041017
  17 C :   -0.017330
  18 C :    0.025426
  19 N :   -0.093821
  20 H :    0.006947
  21 H :    0.008355
  22 H :    0.021323
  23 H :    0.011240
  24 H :    0.003205
  25 H :    0.011413
  26 H :    0.003239
  27 H :    0.006974
  28 H :    0.008386
  29 H :    0.021331
  30 H :    0.036055
  31 H :    0.026095
  32 H :    0.021724
  33 H :    0.026348
Sum of atomic charges:   -0.0000000

LOEWDIN ATOMIC CHARGES
----------------------
   0 C :   -0.022263
   1 C :   -0.029388
   2 C :   -0.019368
   3 C :   -0.181931
   4 C :   -0.026789
   5 C :   -0.030325
   6 P :    0.888011
   7 O :   -0.494413
   8 C :   -0.181866
   9 C :   -0.027105
  10 C :   -0.030304
  11 C :   -0.022279
  12 C :   -0.029292
  13 C :   -0.019334
  14 C :   -0.138719
  15 C :   -0.028788
  16 C :    0.002216
  17 C :   -0.039396
  18 C :    0.015662
  19 N :   -0.077207
  20 H :    0.033730
  21 H :    0.034779
  22 H :    0.037386
  23 H :    0.029618
  24 H :    0.033390
  25 H :    0.029531
  26 H :    0.033396
  27 H :    0.033741
  28 H :    0.034794
  29 H :    0.037392
  30 H :    0.045452
  31 H :    0.041173
  32 H :    0.039895
  33 H :    0.028600

  Mayer bond orders larger than 0.100000
B(  0-C ,  1-C ) :   1.3846 B(  0-C ,  5-C ) :   1.3750 B(  0-C , 20-H ) :   0.9756
B(  1-C ,  2-C ) :   1.3659 B(  1-C , 21-H ) :   0.9781 B(  2-C ,  3-C ) :   1.3884
B(  2-C , 22-H ) :   0.9704 B(  3-C ,  4-C ) :   1.3641 B(  3-C ,  6-P ) :   0.8804
B(  4-C ,  5-C ) :   1.3936 B(  4-C , 23-H ) :   0.9623 B(  5-C , 24-H ) :   0.9750
B(  6-P ,  7-O ) :   1.8804 B(  6-P ,  8-C ) :   0.8801 B(  6-P , 14-C ) :   0.8258
B(  8-C ,  9-C ) :   1.3644 B(  8-C , 13-C ) :   1.3882 B(  9-C , 10-C ) :   1.3934
B(  9-C , 25-H ) :   0.9621 B( 10-C , 11-C ) :   1.3752 B( 10-C , 26-H ) :   0.9750
B( 11-C , 12-C ) :   1.3844 B( 11-C , 27-H ) :   0.9756 B( 12-C , 13-C ) :   1.3662
B( 12-C , 28-H ) :   0.9781 B( 13-C , 29-H ) :   0.9704 B( 14-C , 15-C ) :   1.3850
B( 14-C , 19-N ) :   1.4546 B( 15-C , 16-C ) :   1.3832 B( 15-C , 30-H ) :   0.9554
B( 16-C , 17-C ) :   1.4104 B( 16-C , 31-H ) :   0.9732 B( 17-C , 18-C ) :   1.3717
B( 17-C , 32-H ) :   0.9632 B( 18-C , 19-N ) :   1.5128 B( 18-C , 33-H ) :   0.9629

Dispersion correction           -0.081199811
FINAL SINGLE POINT ENERGY     -1127.036477900768

DIPOLE MOMENT
-------------

Method             : SCF
Type of density    : Electron Density
Multiplicity       :   1
Irrep              :   0
Energy             : -1126.9552780895046453 Eh
Relativity type    :
Basis              : AO
                                X                 Y                 Z
Electronic contribution:      0.262995439       2.020650013       4.195863284
Nuclear contribution   :     -0.342680824      -1.293330409      -5.265035241
                        -----------------------------------------
Total Dipole Moment    :     -0.079685385       0.727319604      -1.069171957
                        -----------------------------------------
Magnitude (a.u.)       :      1.295558660
Magnitude (Debye)      :      3.293048410

Rotational constants in cm-1:             0.010654             0.010550             0.007061
Rotational constants in MHz :           319.401810           316.277672           211.681332

                             ****ORCA TERMINATED NORMALLY****
TOTAL RUN TIME: 0 days 0 hours 2 minutes 58 seconds 934 msec
