                         Program Version 6.0.0  -   RELEASE   -
|  1> ! RI BP86 def2-SVP D3BJ TIGHTSCF Opt
|  2> %pal
|  3> nprocs 6
|  4> end
|  5>
|  6> * xyz 0 1
|  7> C      4.166674   -0.172766    1.277793
|  8> C      3.551535    0.676047    0.359596
|  9> C      2.159264    0.706768    0.256486
| 10> C      1.366858   -0.114071    1.072216
| 11> C      2.001150   -0.960794    1.995238
| 12> C      3.392050   -0.990687    2.096942
| 13> P     -0.434496   -0.135524    0.975168
| 14> O     -1.048371   -0.326999    2.352921
| 15> C     -0.973745    1.422593    0.242888
| 16> C     -1.221020    1.568401   -1.129954
| 17> C     -1.622788    2.800209   -1.650743
| 18> C     -1.782693    3.897943   -0.807309
| 19> C     -1.544277    3.766667    0.558693
| 20> C     -1.143210    2.536679    1.080340
| 21> C     -0.918903   -1.472520   -0.135033
| 22> C     -0.055881   -1.999944   -1.106690
| 23> C     -0.483364   -3.025420   -1.952652
| 24> C     -1.775123   -3.535265   -1.836989
| 25> C     -2.641675   -3.023613   -0.874006
| 26> C     -2.215874   -1.999448   -0.028062
| 27> H      5.250458   -0.192963    1.359059
| 28> H      4.157434    1.318559   -0.274665
| 29> H      1.704225    1.380028   -0.465466
| 30> H      1.399985   -1.597139    2.643606
| 31> H      3.869324   -1.648943    2.818507
| 32> H     -1.106735    0.727144   -1.808764
| 33> H     -1.815485    2.902735   -2.715910
| 34> H     -2.098725    4.855228   -1.213913
| 35> H     -1.674591    4.619855    1.219626
| 36> H     -0.965384    2.437807    2.150535
| 37> H      0.957522   -1.622132   -1.215426
| 38> H      0.193966   -3.430304   -2.700661
| 39> H     -2.105128   -4.335813   -2.494118
| 40> H     -3.647673   -3.424114   -0.777507
| 41> H     -2.895305   -1.608207    0.728257
| 42> **                         ****END OF INPUT****
 Total Charge           Charge          ....    0
 Multiplicity           Mult            ....    1
 Number of Electrons    NEL             ....  146
Dispersion correction           -0.084856778
FINAL SINGLE POINT ENERGY     -1111.000904036823
Dispersion correction             ... done (  0.1 sec)
Dispersion correction           -0.084791430
FINAL SINGLE POINT ENERGY     -1111.006616964894
Dispersion correction             ... done (  0.1 sec)
Dispersion correction           -0.084871312
FINAL SINGLE POINT ENERGY     -1111.007787487189
Dispersion correction             ... done (  0.1 sec)
FINAL SINGLE POINT ENERGY     -1111.008032969509
Dispersion correction             ... done (  0.1 sec)
Dispersion correction           -0.084736578
FINAL SINGLE POINT ENERGY     -1111.008097647341
Dispersion correction             ... done (  0.1 sec)
Dispersion correction           -0.084717523
FINAL SINGLE POINT ENERGY     -1111.008103377584
Dispersion correction             ... done (  0.1 sec)
                    ***********************HURRAY********************

CARTESIAN COORDINATES (ANGSTROEM)
---------------------------------
  C      4.163427   -0.226972    1.238286
  C      3.544807    0.501872    0.208176
  C      2.143590    0.558588    0.129681
  C      1.359685   -0.125026    1.080482
  C      1.981360   -0.841887    2.123017
  C      3.381433   -0.893798    2.197672
  P     -0.472466   -0.145869    1.057579
  O     -1.086495   -0.337069    2.433995
  C     -0.969703    1.425570    0.257030
  C     -1.019250    1.606692   -1.139621
  C     -1.387869    2.853769   -1.670205
  C     -1.715760    3.915704   -0.810064
  C     -1.683958    3.729838    0.583141
  C     -1.314703    2.486586    1.118539
  C     -0.931768   -1.466677   -0.126514
  C     -0.130281   -1.845163   -1.222199
  C     -0.570551   -2.853504   -2.095113
  C     -1.803153   -3.490259   -1.870855
  C     -2.594251   -3.125612   -0.767387
  C     -2.160038   -2.117715    0.106841
  H      5.261859   -0.266829    1.299729
  H      4.156863    1.038030   -0.533335
  H      1.659786    1.151745   -0.661856
  H      1.349745   -1.339739    2.875041
  H      3.866481   -1.452430    3.012867
  H     -0.787802    0.767500   -1.813741
  H     -1.428742    2.994267   -2.761306
  H     -2.007928    4.891184   -1.228385
  H     -1.954962    4.557670    1.256306
  H     -1.302345    2.313103    2.205774
  H      0.847329   -1.365020   -1.383955
  H      0.056933   -3.150432   -2.949526
  H     -2.144292   -4.282715   -2.554646
  H     -3.552915   -3.634711   -0.583858
  H     -2.754069   -1.830696    0.988412

 Multiplicity           Mult            ....    1
 Number of Electrons    NEL             ....  146
 Basis Dimension        Dim             ....  359

ORBITAL ENERGIES
----------------

  NO   OCC          E(Eh)            E(eV)
   0   2.0000     -76.415629     -2079.3750
   1   2.0000     -18.717802      -509.3373
   2   2.0000      -9.933363      -270.3005
   3   2.0000      -9.933345      -270.3001
   4   2.0000      -9.933306      -270.2990
   5   2.0000      -9.930822      -270.2314
   6   2.0000      -9.930784      -270.2304
   7   2.0000      -9.930782      -270.2303
   8   2.0000      -9.930345      -270.2184
   9   2.0000      -9.930310      -270.2175
  10   2.0000      -9.930300      -270.2172
  11   2.0000      -9.928683      -270.1732
  12   2.0000      -9.928657      -270.1725
  13   2.0000      -9.928614      -270.1713
  14   2.0000      -9.928441      -270.1666
  15   2.0000      -9.928410      -270.1658
  16   2.0000      -9.928387      -270.1651
  17   2.0000      -9.928354      -270.1643
  18   2.0000      -9.928332      -270.1636
  19   2.0000      -9.928268      -270.1619
  20   2.0000      -6.373796      -173.4398
  21   2.0000      -4.594998      -125.0362
  22   2.0000      -4.594996      -125.0362
  23   2.0000      -4.594788      -125.0305
  24   2.0000      -0.851685       -23.1755
  25   2.0000      -0.781971       -21.2785
  26   2.0000      -0.778333       -21.1795
  27   2.0000      -0.778307       -21.1788
  28   2.0000      -0.698010       -18.9938
  29   2.0000      -0.678273       -18.4567
  30   2.0000      -0.678234       -18.4557
  31   2.0000      -0.678160       -18.4537
  32   2.0000      -0.674873       -18.3642
  33   2.0000      -0.674867       -18.3641
  34   2.0000      -0.586873       -15.9696
  35   2.0000      -0.552580       -15.0365
  36   2.0000      -0.550760       -14.9869
  37   2.0000      -0.550716       -14.9857
  38   2.0000      -0.540917       -14.7191
  39   2.0000      -0.540900       -14.7186
  40   2.0000      -0.504623       -13.7315
  41   2.0000      -0.474055       -12.8997
  42   2.0000      -0.474037       -12.8992
  43   2.0000      -0.449378       -12.2282
  44   2.0000      -0.416381       -11.3303
  45   2.0000      -0.416154       -11.3241
  46   2.0000      -0.416122       -11.3233
  47   2.0000      -0.406011       -11.0481
  48   2.0000      -0.405980       -11.0473
  49   2.0000      -0.399866       -10.8809
  50   2.0000      -0.383761       -10.4427
  51   2.0000      -0.383322       -10.4307
  52   2.0000      -0.383249       -10.4287
  53   2.0000      -0.378886       -10.3100
  54   2.0000      -0.378808       -10.3079
  55   2.0000      -0.340764        -9.2727
  56   2.0000      -0.340720        -9.2715
  57   2.0000      -0.340600        -9.2682
  58   2.0000      -0.335053        -9.1172
  59   2.0000      -0.317728        -8.6458
  60   2.0000      -0.312929        -8.5152
  61   2.0000      -0.312884        -8.5140
  62   2.0000      -0.305667        -8.3176
  63   2.0000      -0.305602        -8.3158
  64   2.0000      -0.299000        -8.1362
  65   2.0000      -0.248160        -6.7528
  66   2.0000      -0.248077        -6.7505
  67   2.0000      -0.241529        -6.5723
  68   2.0000      -0.239273        -6.5109
  69   2.0000      -0.239252        -6.5104
  70   2.0000      -0.235380        -6.4050
  71   2.0000      -0.218385        -5.9426
  72   2.0000      -0.218332        -5.9411
  73   0.0000      -0.068237        -1.8568
  74   0.0000      -0.068133        -1.8540
  75   0.0000      -0.057184        -1.5560
  76   0.0000      -0.056024        -1.5245
  77   0.0000      -0.049482        -1.3465

MULLIKEN ATOMIC CHARGES
-----------------------
   0 C :    0.009597
   1 C :   -0.000389
   2 C :   -0.007708
   3 C :   -0.129267
   4 C :    0.012841
   5 C :    0.001155
   6 P :    0.632754
   7 O :   -0.454964
   8 C :   -0.129631
   9 C :   -0.007307
  10 C :   -0.000313
  11 C :    0.009545
  12 C :    0.001102
  13 C :    0.012722
  14 C :   -0.129119
  15 C :   -0.007481
  16 C :   -0.000400
  17 C :    0.009564
  18 C :    0.001089
  19 C :    0.012530
  20 H :    0.009438
  21 H :    0.005691
  22 H :    0.005972
  23 H :    0.022297
  24 H :    0.011261
  25 H :    0.005576
  26 H :    0.005702
  27 H :    0.009461
  28 H :    0.011301
  29 H :    0.022301
  30 H :    0.005942
  31 H :    0.005678
  32 H :    0.009429
  33 H :    0.011254
  34 H :    0.022376
Sum of atomic charges:   -0.0000000

LOEWDIN ATOMIC CHARGES
----------------------
   0 C :   -0.021166
   1 C :   -0.029815
   2 C :   -0.035770
   3 C :   -0.182616
   4 C :   -0.014457
   5 C :   -0.025835
   6 P :    0.887650
   7 O :   -0.488978
   8 C :   -0.182654
   9 C :   -0.035722
  10 C :   -0.029836
  11 C :   -0.021156
  12 C :   -0.025837
  13 C :   -0.014435
  14 C :   -0.182678
  15 C :   -0.035747
  16 C :   -0.029832
  17 C :   -0.021162
  18 C :   -0.025857
  19 C :   -0.014456
  20 H :    0.034935
  21 H :    0.034525
  22 H :    0.032472
  23 H :    0.038831
  24 H :    0.036053
  25 H :    0.032386
  26 H :    0.034535
  27 H :    0.034944
  28 H :    0.036063
  29 H :    0.038864
  30 H :    0.032391
  31 H :    0.034520
  32 H :    0.034934
  33 H :    0.036047
  34 H :    0.038861

  Mayer bond orders larger than 0.100000
B(  0-C ,  1-C ) :   1.3815 B(  0-C ,  5-C ) :   1.3776 B(  0-C , 20-H ) :   0.9759
B(  1-C ,  2-C ) :   1.3894 B(  1-C , 21-H ) :   0.9753 B(  2-C ,  3-C ) :   1.3654
B(  2-C , 22-H ) :   0.9649 B(  3-C ,  4-C ) :   1.3791 B(  3-C ,  6-P ) :   0.8785
B(  4-C ,  5-C ) :   1.3767 B(  4-C , 23-H ) :   0.9719 B(  5-C , 24-H ) :   0.9778
B(  6-P ,  7-O ) :   1.8782 B(  6-P ,  8-C ) :   0.8784 B(  6-P , 14-C ) :   0.8785
B(  8-C ,  9-C ) :   1.3647 B(  8-C , 13-C ) :   1.3796 B(  9-C , 10-C ) :   1.3894
B(  9-C , 25-H ) :   0.9649 B( 10-C , 11-C ) :   1.3813 B( 10-C , 26-H ) :   0.9753
B( 11-C , 12-C ) :   1.3778 B( 11-C , 27-H ) :   0.9760 B( 12-C , 13-C ) :   1.3763
B( 12-C , 28-H ) :   0.9778 B( 13-C , 29-H ) :   0.9720 B( 14-C , 15-C ) :   1.3647
B( 14-C , 19-C ) :   1.3796 B( 15-C , 16-C ) :   1.3898 B( 15-C , 30-H ) :   0.9648
B( 16-C , 17-C ) :   1.3812 B( 16-C , 31-H ) :   0.9753 B( 17-C , 18-C ) :   1.3779
B( 17-C , 32-H ) :   0.9760 B( 18-C , 19-C ) :   1.3761 B( 18-C , 33-H ) :   0.9778
B( 19-C , 34-H ) :   0.9719

Dispersion correction           -0.084707749
FINAL SINGLE POINT ENERGY     -1111.008105098564

DIPOLE MOMENT
-------------

Method             : SCF
Type of density    : Electron Density
Multiplicity       :   1
Irrep              :   0
Energy             : -1110.9233973493626308 Eh
Relativity type    :
Basis              : AO
                                X                 Y                 Z
Electronic contribution:     -2.289647308      -0.706253087       5.123003709
Nuclear contribution   :      2.884341605       0.890913772      -6.454915603
                        -----------------------------------------
Total Dipole Moment    :      0.594694297       0.184660685      -1.331911893
                        -----------------------------------------
Magnitude (a.u.)       :      1.470289144
Magnitude (Debye)      :      3.737178005

Rotational constants in cm-1:             0.010686             0.010669             0.006942
Rotational constants in MHz :           320.366601           319.854411           208.110482

                             ****ORCA TERMINATED NORMALLY****
TOTAL RUN TIME: 0 days 0 hours 1 minutes 53 seconds 233 msec
