                         Program Version 6.0.0  -   RELEASE   -
|  1> ! RI BP86 def2-SVP D3BJ TIGHTSCF Opt
|  2> %pal
|  3> nprocs 6
|  4> end
|  5>
|  6> * xyz 0 1
|  7> C      2.706125   -0.053177    0.684599
|  8> C      1.698752    0.313690   -0.400894
|  9> P     -0.009282    0.002366    0.066768
| 10> O     -0.215718    0.054968    1.551805
| 11> C     -0.440411   -1.597912   -0.630548
| 12> C     -1.482064   -2.358859    0.184069
| 13> C     -2.779349   -1.674890    0.148819
| 14> N     -3.783839   -1.099433    0.071592
| 15> C     -1.002576    1.219052   -0.808476
| 16> C     -1.349317    2.443955    0.032398
| 17> C     -0.147861    3.227076    0.340992
| 18> N      0.833127    3.813953    0.539370
| 19> C      2.732771   -1.502646    0.908955
| 20> N      2.722442   -2.656367    1.031168
| 21> H      3.702822    0.284453    0.379212
| 22> H      2.460573    0.465343    1.617313
| 23> H      1.815134    1.378966   -0.621005
| 24> H      1.919967   -0.219523   -1.332880
| 25> H     -0.779261   -1.460984   -1.664125
| 26> H      0.461857   -2.214424   -0.681845
| 27> H     -1.144396   -2.467478    1.220070
| 28> H     -1.593448   -3.368189   -0.227641
| 29> H     -0.483830    1.513129   -1.728406
| 30> H     -1.940092    0.749614   -1.120726
| 31> H     -2.058109    3.070681   -0.520312
| 32> H     -1.844015    2.136635    0.959729
| 33> **                         ****END OF INPUT****
 Total Charge           Charge          ....    0
 Multiplicity           Mult            ....    1
 Number of Electrons    NEL             ....  110
Dispersion correction           -0.055173801
FINAL SINGLE POINT ENERGY      -930.534639948898
Dispersion correction             ... done (  0.1 sec)
Dispersion correction           -0.055122354
FINAL SINGLE POINT ENERGY      -930.542318463487
Dispersion correction             ... done (  0.1 sec)
Dispersion correction           -0.055006182
FINAL SINGLE POINT ENERGY      -930.544284466181
Dispersion correction             ... done (  0.1 sec)
FINAL SINGLE POINT ENERGY      -930.544600957302
FINAL SINGLE POINT ENERGY      -930.544745462612
FINAL SINGLE POINT ENERGY      -930.544781869121
FINAL SINGLE POINT ENERGY      -930.544802339507
FINAL SINGLE POINT ENERGY      -930.544808820235
FINAL SINGLE POINT ENERGY      -930.544814728968
FINAL SINGLE POINT ENERGY      -930.544822672959
FINAL SINGLE POINT ENERGY      -930.544831731922
FINAL SINGLE POINT ENERGY      -930.544842916190
Dispersion correction             ... done (  0.1 sec)
Dispersion correction           -0.054345497
FINAL SINGLE POINT ENERGY      -930.544850598065
Dispersion correction             ... done (  0.1 sec)
Dispersion correction           -0.054354150
FINAL SINGLE POINT ENERGY      -930.544855428134
Dispersion correction             ... done (  0.1 sec)
                    ***********************HURRAY********************

CARTESIAN COORDINATES (ANGSTROEM)
---------------------------------
  C      2.710549   -0.112455    0.709403
  C      1.721213    0.416328   -0.351501
  P     -0.018187    0.005456    0.131882
  O     -0.227940    0.059511    1.638846
  C     -0.375185   -1.671636   -0.567335
  C     -1.540613   -2.334008    0.198664
  C     -2.831939   -1.700708   -0.077893
  N     -3.832179   -1.145138   -0.329928
  C     -1.110365    1.195639   -0.772945
  C     -1.305440    2.480889    0.060263
  C     -0.093164    3.299966    0.127590
  N      0.909927    3.904755    0.154346
  C      2.820675   -1.572860    0.701762
  N      2.856320   -2.743009    0.655332
  H      3.718570    0.323367    0.549005
  H      2.359588    0.205038    1.714890
  H      1.796400    1.521799   -0.383778
  H      1.946270    0.026637   -1.365937
  H     -0.573082   -1.606753   -1.657441
  H      0.536588   -2.284537   -0.420122
  H     -1.340682   -2.256795    1.289073
  H     -1.608392   -3.411655   -0.058035
  H     -0.703779    1.408994   -1.783320
  H     -2.095339    0.702419   -0.896278
  H     -2.128783    3.093702   -0.361995
  H     -1.591030    2.195053    1.095451

 Multiplicity           Mult            ....    1
 Number of Electrons    NEL             ....  110
 Basis Dimension        Dim             ....  260

ORBITAL ENERGIES
----------------

  NO   OCC          E(Eh)            E(eV)
   0   2.0000     -76.439874     -2080.0347
   1   2.0000     -18.747244      -510.1384
   2   2.0000     -14.025782      -381.6609
   3   2.0000     -14.025771      -381.6606
   4   2.0000     -14.025740      -381.6598
   5   2.0000      -9.984347      -271.6879
   6   2.0000      -9.984341      -271.6877
   7   2.0000      -9.984281      -271.6861
   8   2.0000      -9.969298      -271.2784
   9   2.0000      -9.969272      -271.2777
  10   2.0000      -9.969259      -271.2773
  11   2.0000      -9.961984      -271.0794
  12   2.0000      -9.961954      -271.0785
  13   2.0000      -9.961921      -271.0777
  14   2.0000      -6.400229      -174.1591
  15   2.0000      -4.621303      -125.7520
  16   2.0000      -4.621262      -125.7509
  17   2.0000      -4.621261      -125.7509
  18   2.0000      -0.881101       -23.9760
  19   2.0000      -0.830014       -22.5858
  20   2.0000      -0.829964       -22.5845
  21   2.0000      -0.829937       -22.5837
  22   2.0000      -0.758756       -20.6468
  23   2.0000      -0.748077       -20.3562
  24   2.0000      -0.748063       -20.3558
  25   2.0000      -0.665441       -18.1076
  26   2.0000      -0.620950       -16.8969
  27   2.0000      -0.620923       -16.8962
  28   2.0000      -0.519175       -14.1275
  29   2.0000      -0.486824       -13.2472
  30   2.0000      -0.486817       -13.2470
  31   2.0000      -0.480049       -13.0628
  32   2.0000      -0.460453       -12.5296
  33   2.0000      -0.460407       -12.5283
  34   2.0000      -0.430945       -11.7266
  35   2.0000      -0.418952       -11.4003
  36   2.0000      -0.418918       -11.3993
  37   2.0000      -0.405858       -11.0440
  38   2.0000      -0.380509       -10.3542
  39   2.0000      -0.380479       -10.3534
  40   2.0000      -0.379969       -10.3395
  41   2.0000      -0.351185        -9.5562
  42   2.0000      -0.351131        -9.5548
  43   2.0000      -0.329387        -8.9631
  44   2.0000      -0.323792        -8.8108
  45   2.0000      -0.321310        -8.7433
  46   2.0000      -0.321293        -8.7428
  47   2.0000      -0.312934        -8.5154
  48   2.0000      -0.305817        -8.3217
  49   2.0000      -0.305795        -8.3211
  50   2.0000      -0.303670        -8.2633
  51   2.0000      -0.299831        -8.1588
  52   2.0000      -0.299822        -8.1586
  53   2.0000      -0.247912        -6.7460
  54   2.0000      -0.247885        -6.7453
  55   0.0000      -0.035009        -0.9526
  56   0.0000      -0.034993        -0.9522
  57   0.0000      -0.030394        -0.8271
  58   0.0000      -0.023538        -0.6405
  59   0.0000      -0.023519        -0.6400

MULLIKEN ATOMIC CHARGES
-----------------------
   0 C :    0.056897
   1 C :   -0.165063
   2 P :    0.431857
   3 O :   -0.457798
   4 C :   -0.165409
   5 C :    0.056966
   6 C :   -0.240019
   7 N :    0.015263
   8 C :   -0.165455
   9 C :    0.056787
  10 C :   -0.239934
  11 N :    0.015265
  12 C :   -0.240045
  13 N :    0.015232
  14 H :    0.082062
  15 H :    0.098592
  16 H :    0.091188
  17 H :    0.070003
  18 H :    0.069976
  19 H :    0.091119
  20 H :    0.098512
  21 H :    0.082049
  22 H :    0.070095
  23 H :    0.091193
  24 H :    0.082067
  25 H :    0.098600
Sum of atomic charges:   -0.0000000

LOEWDIN ATOMIC CHARGES
----------------------
   0 C :   -0.062552
   1 C :   -0.182848
   2 P :    0.870995
   3 O :   -0.493024
   4 C :   -0.182960
   5 C :   -0.062548
   6 C :   -0.035109
   7 N :   -0.078626
   8 C :   -0.182909
   9 C :   -0.062533
  10 C :   -0.035093
  11 N :   -0.078655
  12 C :   -0.035101
  13 N :   -0.078623
  14 H :    0.068600
  15 H :    0.071879
  16 H :    0.051393
  17 H :    0.041369
  18 H :    0.041353
  19 H :    0.051366
  20 H :    0.071868
  21 H :    0.068594
  22 H :    0.041383
  23 H :    0.051371
  24 H :    0.068553
  25 H :    0.071854

  Mayer bond orders larger than 0.100000
B(  0-C ,  1-C ) :   1.0690 B(  0-C , 12-C ) :   1.1208 B(  0-C , 14-H ) :   0.8905
B(  0-C , 15-H ) :   0.8868 B(  1-C ,  2-P ) :   0.9100 B(  1-C , 16-H ) :   0.9084
B(  1-C , 17-H ) :   0.9170 B(  2-P ,  3-O ) :   1.8513 B(  2-P ,  4-C ) :   0.9101
B(  2-P ,  8-C ) :   0.9100 B(  4-C ,  5-C ) :   1.0691 B(  4-C , 18-H ) :   0.9170
B(  4-C , 19-H ) :   0.9083 B(  5-C ,  6-C ) :   1.1208 B(  5-C , 20-H ) :   0.8868
B(  5-C , 21-H ) :   0.8905 B(  6-C ,  7-N ) :   2.9488 B(  8-C ,  9-C ) :   1.0689
B(  8-C , 22-H ) :   0.9170 B(  8-C , 23-H ) :   0.9084 B(  9-C , 10-C ) :   1.1207
B(  9-C , 24-H ) :   0.8906 B(  9-C , 25-H ) :   0.8868 B( 10-C , 11-N ) :   2.9490
B( 12-C , 13-N ) :   2.9487

Dispersion correction           -0.054362636
FINAL SINGLE POINT ENERGY      -930.544856439042

DIPOLE MOMENT
-------------

Method             : SCF
Type of density    : Electron Density
Multiplicity       :   1
Irrep              :   0
Energy             :  -930.4904938035189161 Eh
Relativity type    :
Basis              : AO
                                X                 Y                 Z
Electronic contribution:     -0.388587345       0.103307725       2.801318563
Nuclear contribution   :      0.551115018      -0.145342454      -3.971150074
                        -----------------------------------------
Total Dipole Moment    :      0.162527674      -0.042034729      -1.169831511
                        -----------------------------------------
Magnitude (a.u.)       :      1.181815522
Magnitude (Debye)      :      3.003936330

Rotational constants in cm-1:             0.020022             0.020007             0.010943
Rotational constants in MHz :           600.239705           599.790863           328.060871

                             ****ORCA TERMINATED NORMALLY****
TOTAL RUN TIME: 0 days 0 hours 2 minutes 18 seconds 461 msec
