                         Program Version 6.0.0  -   RELEASE   -
|  1> ! RIJCOSX M062X def2-TZVP D3ZERO NormalSCF
|  2> %pal
|  3> nprocs 6
|  4> end
|  5>
|  6> * xyz 0 1
|  7>   C          -0.32213976906919      1.61937339941603     -0.29343353673422
|  8>   O          -1.57750000081862      2.24297765374591     -0.09173923306942
|  9>   P          -0.17196521350153     -0.01387873326109      0.63854409259403
| 10>   C           1.60033697392680     -0.46720496012151      0.17645112129780
| 11>   O           2.55599513701022      0.21183461643975      0.97068204782211
| 12>   C          -1.09762844287014     -1.13747186129735     -0.56142277477769
| 13>   O          -1.18720230514175     -2.47081262467012     -0.09285679180685
| 14>   H           0.55029091792445      2.24245301574835      0.02307859283855
| 15>   H          -0.21983201522512      1.44907976344655     -1.38747964612822
| 16>   H          -1.67460067343434      2.38500927692391      0.86974454775469
| 17>   H           1.66593912825972     -1.58125522771716      0.24018846073250
| 18>   H           1.80505799907042     -0.18958415028515     -0.88054962718940
| 19>   H           2.37254941962509     -0.02249281171215      1.90098359290948
| 20>   H          -0.56880297550806     -1.17489583635631     -1.53879345348366
| 21>   H          -2.08825452083198     -0.65300934765386     -0.74428265054575
| 22>   H          -1.64224465941596     -2.44012117264578      0.77088625778606
| 23> **                         ****END OF INPUT****

CARTESIAN COORDINATES (ANGSTROEM)
---------------------------------
  C     -0.322140    1.619373   -0.293434
  O     -1.577500    2.242978   -0.091739
  P     -0.171965   -0.013879    0.638544
  C      1.600337   -0.467205    0.176451
  O      2.555995    0.211835    0.970682
  C     -1.097628   -1.137472   -0.561423
  O     -1.187202   -2.470813   -0.092857
  H      0.550291    2.242453    0.023079
  H     -0.219832    1.449080   -1.387480
  H     -1.674601    2.385009    0.869745
  H      1.665939   -1.581255    0.240188
  H      1.805058   -0.189584   -0.880550
  H      2.372549   -0.022493    1.900984
  H     -0.568803   -1.174896   -1.538793
  H     -2.088255   -0.653009   -0.744283
  H     -1.642245   -2.440121    0.770886

 Total Charge           Charge          ....    0
 Multiplicity           Mult            ....    1
 Number of Electrons    NEL             ....   66
 Basis Dimension        Dim             ....  277

ORBITAL ENERGIES
----------------

  NO   OCC          E(Eh)            E(eV)
   0   2.0000     -78.028332     -2123.2589
   1   2.0000     -19.641428      -534.4704
   2   2.0000     -19.641389      -534.4694
   3   2.0000     -19.641370      -534.4688
   4   2.0000     -10.600612      -288.4573
   5   2.0000     -10.600603      -288.4571
   6   2.0000     -10.600596      -288.4569
   7   2.0000      -6.846256      -186.2961
   8   2.0000      -4.960562      -134.9838
   9   2.0000      -4.960274      -134.9759
  10   2.0000      -4.960272      -134.9759
  11   2.0000      -1.157226       -31.4897
  12   2.0000      -1.155421       -31.4406
  13   2.0000      -1.155385       -31.4396
  14   2.0000      -0.837353       -22.7855
  15   2.0000      -0.765520       -20.8309
  16   2.0000      -0.765483       -20.8299
  17   2.0000      -0.655291       -17.8314
  18   2.0000      -0.597152       -16.2493
  19   2.0000      -0.597127       -16.2486
  20   2.0000      -0.557327       -15.1656
  21   2.0000      -0.533646       -14.5212
  22   2.0000      -0.515134       -14.0175
  23   2.0000      -0.515110       -14.0168
  24   2.0000      -0.496358       -13.5066
  25   2.0000      -0.496315       -13.5054
  26   2.0000      -0.448047       -12.1920
  27   2.0000      -0.412814       -11.2332
  28   2.0000      -0.412784       -11.2324
  29   2.0000      -0.394034       -10.7222
  30   2.0000      -0.331548        -9.0219
  31   2.0000      -0.331516        -9.0210
  32   2.0000      -0.299627        -8.1533
  33   0.0000       0.030963         0.8425
  34   0.0000       0.031043         0.8447
  35   0.0000       0.066505         1.8097
  36   0.0000       0.074403         2.0246
  37   0.0000       0.096994         2.6393

MULLIKEN ATOMIC CHARGES
-----------------------
   0 C :   -0.205495
   1 O :   -0.455930
   2 P :    0.107638
   3 C :   -0.205822
   4 O :   -0.455708
   5 C :   -0.206013
   6 O :   -0.455557
   7 H :    0.154565
   8 H :    0.151605
   9 H :    0.319390
  10 H :    0.154672
  11 H :    0.151784
  12 H :    0.319343
  13 H :    0.151638
  14 H :    0.154610
  15 H :    0.319279
Sum of atomic charges:   -0.0000000

LOEWDIN ATOMIC CHARGES
----------------------
   0 C :   -0.514164
   1 O :   -0.063689
   2 P :    0.480454
   3 C :   -0.514109
   4 O :   -0.063584
   5 C :   -0.514155
   6 O :   -0.063627
   7 H :    0.118306
   8 H :    0.121246
   9 H :    0.178074
  10 H :    0.118281
  11 H :    0.121279
  12 H :    0.178094
  13 H :    0.121224
  14 H :    0.118290
  15 H :    0.178081

  Mayer bond orders larger than 0.100000
B(  0-C ,  1-O ) :   0.9720 B(  0-C ,  2-P ) :   0.9805 B(  0-C ,  7-H ) :   0.9373
B(  0-C ,  8-H ) :   0.9477 B(  1-O ,  9-H ) :   0.8846 B(  2-P ,  3-C ) :   0.9805
B(  2-P ,  5-C ) :   0.9804 B(  3-C ,  4-O ) :   0.9721 B(  3-C , 10-H ) :   0.9374
B(  3-C , 11-H ) :   0.9476 B(  4-O , 12-H ) :   0.8847 B(  5-C ,  6-O ) :   0.9722
B(  5-C , 13-H ) :   0.9478 B(  5-C , 14-H ) :   0.9374 B(  6-O , 15-H ) :   0.8847

Dispersion correction           -0.000431895
FINAL SINGLE POINT ENERGY      -686.712364877270

DIPOLE MOMENT
-------------

Method             : SCF
Type of density    : Electron Density
Multiplicity       :   1
Irrep              :   0
Energy             :  -686.7119329819927316 Eh
Relativity type    :
Basis              : AO
                                X                 Y                 Z
Electronic contribution:     -0.877658560      -0.070601989       3.271881173
Nuclear contribution   :      0.723602612       0.056648255      -2.694595681
                        -----------------------------------------
Total Dipole Moment    :     -0.154055948      -0.013953734       0.577285492
                        -----------------------------------------
Magnitude (a.u.)       :      0.597650802
Magnitude (Debye)      :      1.519107612

Rotational constants in cm-1:             0.061145             0.061064             0.033479
Rotational constants in MHz :          1833.084764          1830.637804          1003.670329

                             ****ORCA TERMINATED NORMALLY****
TOTAL RUN TIME: 0 days 0 hours 0 minutes 16 seconds 604 msec
