                         Program Version 6.0.0  -   RELEASE   -
|  1> ! RI BP86 def2-SVP D3BJ TIGHTSCF Opt
|  2> %pal
|  3> nprocs 6
|  4> end
|  5>
|  6> * xyz 0 1
|  7> C     -2.979569   -2.691949    1.838774
|  8> C     -1.988614   -2.770265    0.714748
|  9> C     -1.456510   -1.599308    0.156891
| 10> C     -0.555112   -1.656859   -0.917630
| 11> C     -0.204883   -2.911430   -1.438072
| 12> C     -0.740551   -4.079585   -0.898741
| 13> C     -1.631790   -4.008879    0.170819
| 14> P      0.180558   -0.180852   -1.649329
| 15> O      0.345595   -0.346254   -3.151844
| 16> C      1.775826    0.101080   -0.855079
| 17> C      2.737962    0.865644   -1.531230
| 18> C      3.980717    1.117533   -0.952855
| 19> C      4.276972    0.610469    0.311421
| 20> C      3.330370   -0.145891    1.010847
| 21> C      2.088129   -0.406881    0.415700
| 22> C      3.664314   -0.726195    2.353708
| 23> C     -0.888090    1.222770   -1.271160
| 24> C     -1.975016    1.487643   -2.117265
| 25> C     -2.833031    2.555230   -1.859442
| 26> C     -2.617212    3.370844   -0.749727
| 27> C     -1.546493    3.120988    0.115410
| 28> C     -0.679669    2.053927   -0.159328
| 29> C     -1.290067    4.023559    1.286376
| 30> H     -2.773090   -1.829388    2.481118
| 31> H     -3.993589   -2.600738    1.437612
| 32> H     -2.927276   -3.585700    2.469374
| 33> H     -1.752833   -0.637085    0.568593
| 34> H      0.485167   -2.972660   -2.278622
| 35> H     -0.468058   -5.045026   -1.317552
| 36> H     -2.050265   -4.928087    0.574922
| 37> H      2.515082    1.258194   -2.522527
| 38> H      4.720914    1.703701   -1.491600
| 39> H      5.254772    0.806044    0.746188
| 40> H      1.362673   -1.013256    0.953476
| 41> H      4.378696   -0.090874    2.887760
| 42> H      4.099012   -1.723117    2.232624
| 43> H      2.768441   -0.803145    2.978797
| 44> H     -2.144379    0.858448   -2.990119
| 45> H     -3.666217    2.755237   -2.528418
| 46> H     -3.288664    4.206902   -0.566636
| 47> H      0.164127    1.875803    0.503588
| 48> H     -0.620105    4.837099    0.991763
| 49> H     -2.224976    4.453035    1.661456
| 50> H     -0.833267    3.469274    2.113026
| 51> **                         ****END OF INPUT****
 Total Charge           Charge          ....    0
 Multiplicity           Mult            ....    1
 Number of Electrons    NEL             ....  170
Dispersion correction           -0.100888948
FINAL SINGLE POINT ENERGY     -1228.876161333482
Dispersion correction             ... done (  0.1 sec)
Dispersion correction           -0.100807992
FINAL SINGLE POINT ENERGY     -1228.883362065963
Dispersion correction             ... done (  0.1 sec)
Dispersion correction           -0.101020418
FINAL SINGLE POINT ENERGY     -1228.884822971880
Dispersion correction             ... done (  0.1 sec)
FINAL SINGLE POINT ENERGY     -1228.885124115577
Dispersion correction             ... done (  0.1 sec)
Dispersion correction           -0.100922102
FINAL SINGLE POINT ENERGY     -1228.885198148567
Dispersion correction             ... done (  0.1 sec)
Dispersion correction           -0.100890869
FINAL SINGLE POINT ENERGY     -1228.885206962027
Dispersion correction             ... done (  0.1 sec)
                    ***********************HURRAY********************

CARTESIAN COORDINATES (ANGSTROEM)
---------------------------------
  C     -2.707572   -2.621365    2.028822
  C     -1.864370   -2.724719    0.780149
  C     -1.325017   -1.569369    0.177276
  C     -0.568077   -1.656100   -1.006184
  C     -0.356498   -2.905661   -1.621318
  C     -0.885534   -4.060995   -1.027978
  C     -1.625383   -3.970655    0.162464
  P      0.197742   -0.202367   -1.818226
  O      0.361485   -0.368606   -3.319246
  C      1.784478    0.064754   -0.941343
  C      2.812189    0.688469   -1.675671
  C      4.037875    0.956163   -1.049034
  C      4.239667    0.598304    0.294012
  C      3.228010   -0.045855    1.037538
  C      1.998041   -0.307783    0.398954
  C      3.464786   -0.479560    2.464699
  C     -0.856751    1.224211   -1.357523
  C     -1.837515    1.610372   -2.291985
  C     -2.698861    2.673188   -1.982985
  C     -2.577952    3.349558   -0.758078
  C     -1.587466    2.988826    0.180108
  C     -0.728838    1.916493   -0.138682
  C     -1.421204    3.752942    1.472179
  H     -2.401528   -1.762691    2.658969
  H     -3.778710   -2.470876    1.772289
  H     -2.644932   -3.541823    2.642520
  H     -1.514661   -0.584494    0.633789
  H      0.212130   -2.950331   -2.562707
  H     -0.722619   -5.043353   -1.497674
  H     -2.034743   -4.885586    0.620236
  H      2.636340    0.945170   -2.731470
  H      4.846725    1.447103   -1.612009
  H      5.206426    0.815347    0.776180
  H      1.200291   -0.825205    0.955949
  H      4.190950    0.181575    2.977985
  H      3.877623   -1.511016    2.502405
  H      2.524706   -0.484336    3.051304
  H     -1.902038    1.076237   -3.252220
  H     -3.471978    2.980712   -2.704038
  H     -3.260927    4.182478   -0.525766
  H      0.063116    1.629984    0.572053
  H     -0.714131    4.600941    1.342783
  H     -2.382175    4.179646    1.821936
  H     -1.013101    3.110272    2.277348

 Multiplicity           Mult            ....    1
 Number of Electrons    NEL             ....  170
 Basis Dimension        Dim             ....  431

ORBITAL ENERGIES
----------------

  NO   OCC          E(Eh)            E(eV)
   0   2.0000     -76.410954     -2079.2478
   1   2.0000     -18.712992      -509.2064
   2   2.0000      -9.932896      -270.2878
   3   2.0000      -9.932878      -270.2873
   4   2.0000      -9.932866      -270.2870
   5   2.0000      -9.925839      -270.0958
   6   2.0000      -9.925826      -270.0955
   7   2.0000      -9.925789      -270.0944
   8   2.0000      -9.924036      -270.0467
   9   2.0000      -9.923997      -270.0457
  10   2.0000      -9.923984      -270.0453
  11   2.0000      -9.923832      -270.0412
  12   2.0000      -9.923795      -270.0402
  13   2.0000      -9.923783      -270.0399
  14   2.0000      -9.923223      -270.0246
  15   2.0000      -9.923144      -270.0225
  16   2.0000      -9.923075      -270.0206
  17   2.0000      -9.922691      -270.0102
  18   2.0000      -9.922687      -270.0100
  19   2.0000      -9.922658      -270.0092
  20   2.0000      -9.922301      -269.9995
  21   2.0000      -9.922220      -269.9973
  22   2.0000      -9.922202      -269.9968
  23   2.0000      -6.368972      -173.3085
  24   2.0000      -4.590189      -124.9054
  25   2.0000      -4.590181      -124.9052
  26   2.0000      -4.589968      -124.8994
  27   2.0000      -0.846791       -23.0424
  28   2.0000      -0.780638       -21.2422
  29   2.0000      -0.777419       -21.1546
  30   2.0000      -0.777394       -21.1540
  31   2.0000      -0.705207       -19.1897
  32   2.0000      -0.699351       -19.0303
  33   2.0000      -0.699317       -19.0294
  34   2.0000      -0.687606       -18.7107
  35   2.0000      -0.670322       -18.2404
  36   2.0000      -0.670300       -18.2398
  37   2.0000      -0.619232       -16.8502
  38   2.0000      -0.618480       -16.8297
  39   2.0000      -0.618460       -16.8292
  40   2.0000      -0.583091       -15.8667
  41   2.0000      -0.546575       -14.8730
  42   2.0000      -0.546509       -14.8713
  43   2.0000      -0.539633       -14.6842
  44   2.0000      -0.521633       -14.1944
  45   2.0000      -0.521562       -14.1924
  46   2.0000      -0.484423       -13.1818
  47   2.0000      -0.460519       -12.5314
  48   2.0000      -0.460461       -12.5298
  49   2.0000      -0.444914       -12.1067
  50   2.0000      -0.422836       -11.5060
  51   2.0000      -0.422643       -11.5007
  52   2.0000      -0.422586       -11.4992
  53   2.0000      -0.399372       -10.8675
  54   2.0000      -0.399294       -10.8653
  55   2.0000      -0.392231       -10.6732
  56   2.0000      -0.382939       -10.4203
  57   2.0000      -0.382891       -10.4190
  58   2.0000      -0.380327       -10.3492
  59   2.0000      -0.372336       -10.1318
  60   2.0000      -0.372255       -10.1296
  61   2.0000      -0.369370       -10.0511
  62   2.0000      -0.368023       -10.0144
  63   2.0000      -0.367972       -10.0130
  64   2.0000      -0.348252        -9.4764
  65   2.0000      -0.346226        -9.4213
  66   2.0000      -0.346216        -9.4210
  67   2.0000      -0.333725        -9.0811
  68   2.0000      -0.326521        -8.8851
  69   2.0000      -0.326452        -8.8832
  70   2.0000      -0.320966        -8.7339
  71   2.0000      -0.309840        -8.4312
  72   2.0000      -0.308317        -8.3897
  73   2.0000      -0.308264        -8.3883
  74   2.0000      -0.297958        -8.1078
  75   2.0000      -0.297857        -8.1051
  76   2.0000      -0.294352        -8.0097
  77   2.0000      -0.241761        -6.5786
  78   2.0000      -0.241631        -6.5751
  79   2.0000      -0.233418        -6.3516
  80   2.0000      -0.227135        -6.1807
  81   2.0000      -0.227128        -6.1805
  82   2.0000      -0.225573        -6.1381
  83   2.0000      -0.213148        -5.8000
  84   2.0000      -0.213050        -5.7974
  85   0.0000      -0.063263        -1.7215
  86   0.0000      -0.063069        -1.7162
  87   0.0000      -0.052906        -1.4397
  88   0.0000      -0.052063        -1.4167
  89   0.0000      -0.044070        -1.1992

MULLIKEN ATOMIC CHARGES
-----------------------
   0 C :    0.013335
   1 C :   -0.046679
   2 C :   -0.027811
   3 C :   -0.121508
   4 C :    0.008098
   5 C :    0.004812
   6 C :   -0.016766
   7 P :    0.629567
   8 O :   -0.456402
   9 C :   -0.121252
  10 C :    0.008131
  11 C :    0.004924
  12 C :   -0.016731
  13 C :   -0.046719
  14 C :   -0.027711
  15 C :    0.013397
  16 C :   -0.121442
  17 C :    0.007704
  18 C :    0.004849
  19 C :   -0.016723
  20 C :   -0.046824
  21 C :   -0.027550
  22 C :    0.013304
  23 H :    0.034213
  24 H :    0.056794
  25 H :    0.034341
  26 H :   -0.012673
  27 H :    0.018761
  28 H :    0.006837
  29 H :   -0.009738
  30 H :    0.018688
  31 H :    0.006811
  32 H :   -0.009810
  33 H :   -0.012262
  34 H :    0.034572
  35 H :    0.056764
  36 H :    0.033979
  37 H :    0.018760
  38 H :    0.006870
  39 H :   -0.009741
  40 H :   -0.012524
  41 H :    0.056782
  42 H :    0.034625
  43 H :    0.033947
Sum of atomic charges:   -0.0000000

LOEWDIN ATOMIC CHARGES
----------------------
   0 C :   -0.063009
   1 C :   -0.027880
   2 C :   -0.039525
   3 C :   -0.180197
   4 C :   -0.021556
   5 C :   -0.025607
   6 C :   -0.026097
   7 P :    0.888094
   8 O :   -0.490112
   9 C :   -0.180078
  10 C :   -0.021543
  11 C :   -0.025577
  12 C :   -0.026106
  13 C :   -0.027872
  14 C :   -0.039589
  15 C :   -0.062998
  16 C :   -0.180152
  17 C :   -0.021586
  18 C :   -0.025617
  19 C :   -0.026069
  20 C :   -0.027888
  21 C :   -0.039607
  22 C :   -0.063014
  23 H :    0.036019
  24 H :    0.046438
  25 H :    0.036423
  26 H :    0.028825
  27 H :    0.037781
  28 H :    0.035131
  29 H :    0.030646
  30 H :    0.037748
  31 H :    0.035117
  32 H :    0.030629
  33 H :    0.028806
  34 H :    0.036518
  35 H :    0.046404
  36 H :    0.035938
  37 H :    0.037781
  38 H :    0.035126
  39 H :    0.030647
  40 H :    0.028747
  41 H :    0.046425
  42 H :    0.036519
  43 H :    0.035917

  Mayer bond orders larger than 0.100000
B(  0-C ,  1-C ) :   1.0730 B(  0-C , 23-H ) :   0.9537 B(  0-C , 24-H ) :   0.9459
B(  0-C , 25-H ) :   0.9530 B(  1-C ,  2-C ) :   1.3801 B(  1-C ,  6-C ) :   1.3844
B(  2-C ,  3-C ) :   1.3483 B(  2-C , 26-H ) :   0.9646 B(  3-C ,  4-C ) :   1.3763
B(  3-C ,  7-P ) :   0.8778 B(  4-C ,  5-C ) :   1.3666 B(  4-C , 27-H ) :   0.9737
B(  5-C ,  6-C ) :   1.3699 B(  5-C , 28-H ) :   0.9757 B(  6-C , 29-H ) :   0.9753
B(  7-P ,  8-O ) :   1.8783 B(  7-P ,  9-C ) :   0.8787 B(  7-P , 16-C ) :   0.8781
B(  9-C , 10-C ) :   1.3765 B(  9-C , 14-C ) :   1.3490 B( 10-C , 11-C ) :   1.3663
B( 10-C , 30-H ) :   0.9736 B( 11-C , 12-C ) :   1.3701 B( 11-C , 31-H ) :   0.9758
B( 12-C , 13-C ) :   1.3844 B( 12-C , 32-H ) :   0.9754 B( 13-C , 14-C ) :   1.3798
B( 13-C , 15-C ) :   1.0729 B( 14-C , 33-H ) :   0.9645 B( 15-C , 34-H ) :   0.9530
B( 15-C , 35-H ) :   0.9459 B( 15-C , 36-H ) :   0.9538 B( 16-C , 17-C ) :   1.3774
B( 16-C , 21-C ) :   1.3475 B( 17-C , 18-C ) :   1.3657 B( 17-C , 37-H ) :   0.9735
B( 18-C , 19-C ) :   1.3704 B( 18-C , 38-H ) :   0.9758 B( 19-C , 20-C ) :   1.3840
B( 19-C , 39-H ) :   0.9754 B( 20-C , 21-C ) :   1.3807 B( 20-C , 22-C ) :   1.0730
B( 21-C , 40-H ) :   0.9643 B( 22-C , 41-H ) :   0.9458 B( 22-C , 42-H ) :   0.9530
B( 22-C , 43-H ) :   0.9537

Dispersion correction           -0.100864684
FINAL SINGLE POINT ENERGY     -1228.885210231338

DIPOLE MOMENT
-------------

Method             : SCF
Type of density    : Electron Density
Multiplicity       :   1
Irrep              :   0
Energy             : -1228.7843455477561747 Eh
Relativity type    :
Basis              : AO
                                X                 Y                 Z
Electronic contribution:      1.986606577      -2.002370247     -18.080172462
Nuclear contribution   :     -2.192890446       2.214065876      19.973562992
                        -----------------------------------------
Total Dipole Moment    :     -0.206283869       0.211695629       1.893390530
                        -----------------------------------------
Magnitude (a.u.)       :      1.916323504
Magnitude (Debye)      :      4.870907250

Rotational constants in cm-1:             0.007608             0.007601             0.005557
Rotational constants in MHz :           228.075918           227.858778           166.596510

                             ****ORCA TERMINATED NORMALLY****
TOTAL RUN TIME: 0 days 0 hours 2 minutes 41 seconds 111 msec
