                         Program Version 6.0.0  -   RELEASE   -
|  1> ! RI BP86 def2-SVP D3BJ TIGHTSCF Opt
|  2> %pal
|  3> nprocs 6
|  4> end
|  5>
|  6> * xyz 0 1
|  7> C      5.212665    0.090662    0.749749
|  8> C      3.796917    0.046819    0.257950
|  9> C      2.840623   -0.732235    0.914540
| 10> C      1.525700   -0.799946    0.438592
| 11> C      1.135110   -0.097837   -0.709638
| 12> C      2.110359    0.667542   -1.372001
| 13> C      3.424602    0.736829   -0.897845
| 14> P     -0.548602   -0.122653   -1.406633
| 15> C     -1.382763   -1.469371   -0.504898
| 16> C     -1.206141   -2.783623   -0.974492
| 17> C     -1.813950   -3.868326   -0.336045
| 18> C     -2.612719   -3.658270    0.783552
| 19> C     -2.802792   -2.365491    1.263179
| 20> C     -2.193770   -1.280489    0.623944
| 21> C     -1.322076    1.392777   -0.751933
| 22> C     -2.551139    1.795979   -1.305101
| 23> C     -3.204572    2.946971   -0.855791
| 24> C     -2.638938    3.718648    0.154243
| 25> C     -1.421971    3.339325    0.713280
| 26> C     -0.768860    2.186993    0.263383
| 27> H      5.251780   -0.023792    1.838144
| 28> H      5.680808    1.050589    0.507632
| 29> H      5.794329   -0.713153    0.288150
| 30> H      3.108716   -1.295796    1.805608
| 31> H      0.818401   -1.412399    0.991807
| 32> H      1.854801    1.224467   -2.272085
| 33> H      4.152743    1.335312   -1.440586
| 34> H     -0.585060   -2.977118   -1.847641
| 35> H     -1.661853   -4.875097   -0.716072
| 36> H     -3.087184   -4.499797    1.281075
| 37> H     -3.426566   -2.195823    2.137118
| 38> H     -2.364657   -0.288654    1.034512
| 39> H     -3.017205    1.210171   -2.095794
| 40> H     -4.154154    3.237856   -1.297171
| 41> H     -3.144403    4.614514    0.504583
| 42> H     -0.975161    3.939284    1.501994
| 43> H      0.176982    1.925131    0.730689
| 44> **                         ****END OF INPUT****
 Total Charge           Charge          ....    0
 Multiplicity           Mult            ....    1
 Number of Electrons    NEL             ....  146
Dispersion correction           -0.086039258
FINAL SINGLE POINT ENERGY     -1075.095493424056
Dispersion correction             ... done (  0.1 sec)
Dispersion correction           -0.086511514
FINAL SINGLE POINT ENERGY     -1075.101150670668
Dispersion correction             ... done (  0.1 sec)
Dispersion correction           -0.086690384
FINAL SINGLE POINT ENERGY     -1075.101856592207
Dispersion correction             ... done (  0.1 sec)
FINAL SINGLE POINT ENERGY     -1075.102082659191
FINAL SINGLE POINT ENERGY     -1075.102117202834
Dispersion correction             ... done (  0.1 sec)
Dispersion correction           -0.086727864
FINAL SINGLE POINT ENERGY     -1075.102120708756
Dispersion correction             ... done (  0.1 sec)
Dispersion correction           -0.086721088
FINAL SINGLE POINT ENERGY     -1075.102121501142
Dispersion correction             ... done (  0.1 sec)
                    ***********************HURRAY********************

CARTESIAN COORDINATES (ANGSTROEM)
---------------------------------
  C      5.157909    0.111407    0.819359
  C      3.753120    0.054041    0.269592
  C      2.748231   -0.695868    0.916092
  C      1.448584   -0.777743    0.393906
  C      1.115066   -0.109719   -0.802282
  C      2.118846    0.633565   -1.460522
  C      3.411485    0.721749   -0.926324
  P     -0.569384   -0.128367   -1.568103
  C     -1.386777   -1.463371   -0.576906
  C     -1.179641   -2.795404   -1.000347
  C     -1.748915   -3.865846   -0.294704
  C     -2.551068   -3.618317    0.833291
  C     -2.773882   -2.296409    1.252659
  C     -2.193124   -1.223710    0.555316
  C     -1.322954    1.383652   -0.807501
  C     -2.574946    1.802351   -1.311091
  C     -3.219571    2.927865   -0.776354
  C     -2.610852    3.663526    0.255694
  C     -1.359006    3.263117    0.751463
  C     -0.718362    2.128147    0.226649
  H      5.169504    0.008315    1.922762
  H      5.662713    1.061790    0.554481
  H      5.779780   -0.713671    0.408305
  H      2.987334   -1.223329    1.853948
  H      0.681691   -1.361071    0.925303
  H      1.878813    1.155951   -2.401002
  H      4.176664    1.315626   -1.451969
  H     -0.560921   -2.990534   -1.891422
  H     -1.573728   -4.899123   -0.632317
  H     -3.006066   -4.456937    1.382474
  H     -3.402184   -2.096037    2.134559
  H     -2.362562   -0.190879    0.894522
  H     -3.047479    1.234072   -2.128883
  H     -4.198198    3.238652   -1.173870
  H     -3.111310    4.552377    0.669697
  H     -0.876515    3.836684    1.558261
  H      0.257707    1.813451    0.625263

 Multiplicity           Mult            ....    1
 Number of Electrons    NEL             ....  146
 Basis Dimension        Dim             ....  369

ORBITAL ENERGIES
----------------

  NO   OCC          E(Eh)            E(eV)
   0   2.0000     -76.343912     -2077.4235
   1   2.0000      -9.928243      -270.1612
   2   2.0000      -9.924653      -270.0636
   3   2.0000      -9.924503      -270.0595
   4   2.0000      -9.922520      -270.0055
   5   2.0000      -9.922332      -270.0004
   6   2.0000      -9.922061      -269.9930
   7   2.0000      -9.922016      -269.9918
   8   2.0000      -9.921896      -269.9885
   9   2.0000      -9.921836      -269.9869
  10   2.0000      -9.921693      -269.9830
  11   2.0000      -9.921339      -269.9734
  12   2.0000      -9.921311      -269.9726
  13   2.0000      -9.921271      -269.9715
  14   2.0000      -9.920248      -269.9437
  15   2.0000      -9.920187      -269.9420
  16   2.0000      -9.919384      -269.9202
  17   2.0000      -9.919159      -269.9140
  18   2.0000      -9.918422      -269.8940
  19   2.0000      -9.917939      -269.8808
  20   2.0000      -6.312214      -171.7641
  21   2.0000      -4.533651      -123.3669
  22   2.0000      -4.533637      -123.3665
  23   2.0000      -4.530070      -123.2695
  24   2.0000      -0.777855       -21.1665
  25   2.0000      -0.770921       -20.9778
  26   2.0000      -0.768979       -20.9250
  27   2.0000      -0.704923       -19.1819
  28   2.0000      -0.681634       -18.5482
  29   2.0000      -0.670048       -18.2329
  30   2.0000      -0.668870       -18.2009
  31   2.0000      -0.667971       -18.1764
  32   2.0000      -0.664209       -18.0740
  33   2.0000      -0.620864       -16.8946
  34   2.0000      -0.574306       -15.6277
  35   2.0000      -0.544499       -14.8166
  36   2.0000      -0.542074       -14.7506
  37   2.0000      -0.541146       -14.7253
  38   2.0000      -0.531698       -14.4682
  39   2.0000      -0.522040       -14.2054
  40   2.0000      -0.498907       -13.5760
  41   2.0000      -0.464145       -12.6300
  42   2.0000      -0.457071       -12.4375
  43   2.0000      -0.431741       -11.7483
  44   2.0000      -0.418147       -11.3783
  45   2.0000      -0.406976       -11.0744
  46   2.0000      -0.405811       -11.0427
  47   2.0000      -0.399048       -10.8587
  48   2.0000      -0.397725       -10.8226
  49   2.0000      -0.390681       -10.6310
  50   2.0000      -0.378061       -10.2876
  51   2.0000      -0.375052       -10.2057
  52   2.0000      -0.374291       -10.1850
  53   2.0000      -0.372648       -10.1403
  54   2.0000      -0.363858        -9.9011
  55   2.0000      -0.357183        -9.7195
  56   2.0000      -0.343490        -9.3468
  57   2.0000      -0.332520        -9.0483
  58   2.0000      -0.329432        -8.9643
  59   2.0000      -0.323854        -8.8125
  60   2.0000      -0.318488        -8.6665
  61   2.0000      -0.304046        -8.2735
  62   2.0000      -0.303728        -8.2649
  63   2.0000      -0.299062        -8.1379
  64   2.0000      -0.286042        -7.7836
  65   2.0000      -0.285337        -7.7644
  66   2.0000      -0.247678        -6.7397
  67   2.0000      -0.236348        -6.4314
  68   2.0000      -0.235462        -6.4073
  69   2.0000      -0.231888        -6.3100
  70   2.0000      -0.228627        -6.2213
  71   2.0000      -0.226006        -6.1499
  72   2.0000      -0.191284        -5.2051
  73   0.0000      -0.056746        -1.5441
  74   0.0000      -0.056038        -1.5249
  75   0.0000      -0.054105        -1.4723
  76   0.0000      -0.041417        -1.1270
  77   0.0000      -0.038697        -1.0530

MULLIKEN ATOMIC CHARGES
-----------------------
   0 C :    0.009795
   1 C :   -0.040147
   2 C :   -0.019249
   3 C :    0.010657
   4 C :   -0.160437
   5 C :    0.017420
   6 C :   -0.024120
   7 P :    0.301078
   8 C :   -0.160977
   9 C :    0.015481
  10 C :   -0.001085
  11 C :    0.002640
  12 C :    0.003243
  13 C :    0.005088
  14 C :   -0.162803
  15 C :    0.013693
  16 C :   -0.000940
  17 C :    0.002763
  18 C :    0.003518
  19 C :    0.006492
  20 H :    0.034877
  21 H :    0.034894
  22 H :    0.054489
  23 H :   -0.014058
  24 H :    0.013850
  25 H :    0.001189
  26 H :   -0.011895
  27 H :    0.003753
  28 H :    0.004570
  29 H :    0.004121
  30 H :    0.002224
  31 H :    0.017525
  32 H :    0.004107
  33 H :    0.004740
  34 H :    0.004234
  35 H :    0.002067
  36 H :    0.017203
Sum of atomic charges:   -0.0000000

LOEWDIN ATOMIC CHARGES
----------------------
   0 C :   -0.063532
   1 C :   -0.025958
   2 C :   -0.034593
   3 C :   -0.033445
   4 C :   -0.179238
   5 C :   -0.032664
   6 C :   -0.034657
   7 P :    0.498881
   8 C :   -0.171365
   9 C :   -0.034127
  10 C :   -0.031382
  11 C :   -0.030743
  12 C :   -0.031021
  13 C :   -0.036361
  14 C :   -0.172281
  15 C :   -0.034638
  16 C :   -0.031532
  17 C :   -0.030556
  18 C :   -0.031010
  19 C :   -0.035341
  20 H :    0.036443
  21 H :    0.036376
  22 H :    0.045305
  23 H :    0.029732
  24 H :    0.035416
  25 H :    0.030922
  26 H :    0.030160
  27 H :    0.030996
  28 H :    0.033436
  29 H :    0.032583
  30 H :    0.033022
  31 H :    0.035432
  32 H :    0.031046
  33 H :    0.033493
  34 H :    0.032623
  35 H :    0.032951
  36 H :    0.035625

  Mayer bond orders larger than 0.100000
B(  0-C ,  1-C ) :   1.0721 B(  0-C , 20-H ) :   0.9541 B(  0-C , 21-H ) :   0.9542
B(  0-C , 22-H ) :   0.9465 B(  1-C ,  2-C ) :   1.3742 B(  1-C ,  6-C ) :   1.3731
B(  2-C ,  3-C ) :   1.3764 B(  2-C , 23-H ) :   0.9756 B(  3-C ,  4-C ) :   1.3717
B(  3-C , 24-H ) :   0.9664 B(  4-C ,  5-C ) :   1.3551 B(  4-C ,  7-P ) :   0.9378
B(  5-C ,  6-C ) :   1.3965 B(  5-C , 25-H ) :   0.9704 B(  6-C , 26-H ) :   0.9763
B(  7-P ,  8-C ) :   0.9337 B(  7-P , 14-C ) :   0.9320 B(  8-C ,  9-C ) :   1.3617
B(  8-C , 13-C ) :   1.3854 B(  9-C , 10-C ) :   1.4055 B(  9-C , 27-H ) :   0.9713
B( 10-C , 11-C ) :   1.3735 B( 10-C , 28-H ) :   0.9757 B( 11-C , 12-C ) :   1.3802
B( 11-C , 29-H ) :   0.9756 B( 12-C , 13-C ) :   1.3802 B( 12-C , 30-H ) :   0.9746
B( 13-C , 31-H ) :   0.9664 B( 14-C , 15-C ) :   1.3614 B( 14-C , 19-C ) :   1.3851
B( 15-C , 16-C ) :   1.4044 B( 15-C , 32-H ) :   0.9715 B( 16-C , 17-C ) :   1.3741
B( 16-C , 33-H ) :   0.9758 B( 17-C , 18-C ) :   1.3795 B( 17-C , 34-H ) :   0.9756
B( 18-C , 19-C ) :   1.3809 B( 18-C , 35-H ) :   0.9746 B( 19-C , 36-H ) :   0.9665

Dispersion correction           -0.086725681
FINAL SINGLE POINT ENERGY     -1075.102121869903

DIPOLE MOMENT
-------------

Method             : SCF
Type of density    : Electron Density
Multiplicity       :   1
Irrep              :   0
Energy             : -1075.0153961892860934 Eh
Relativity type    :
Basis              : AO
                                X                 Y                 Z
Electronic contribution:     -7.685032699      -0.653303926      -7.430476342
Nuclear contribution   :      7.947798002       0.686079142       8.018932048
                        -----------------------------------------
Total Dipole Moment    :      0.262765304       0.032775216       0.588455706
                        -----------------------------------------
Magnitude (a.u.)       :      0.645290584
Magnitude (Debye)      :      1.640198316

Rotational constants in cm-1:             0.011702             0.008922             0.005943
Rotational constants in MHz :           350.813414           267.464288           178.177336

                             ****ORCA TERMINATED NORMALLY****
TOTAL RUN TIME: 0 days 0 hours 2 minutes 10 seconds 18 msec
