                         Program Version 6.0.0  -   RELEASE   -
|  1> ! RIJONX B3LYP def2-SVP D3BJ TIGHTSCF Opt
|  2> %pal
|  3> nprocs 6
|  4> end
|  5>
|  6> * xyz 0 1
|  7> C     -1.542124   -3.912666    0.707674
|  8> C     -0.223742   -3.812667    0.275043
|  9> C      0.221111   -2.644223   -0.351148
| 10> C     -0.636200   -1.544687   -0.540296
| 11> C     -1.969476   -1.681842   -0.122714
| 12> C     -2.416475   -2.849385    0.504720
| 13> P     -0.038806   -0.054266   -1.415456
| 14> C     -0.958517    1.332816   -0.691762
| 15> C     -1.291523    2.425899   -1.490339
| 16> C     -1.991089    3.490684   -0.926389
| 17> C     -2.338858    3.440498    0.416564
| 18> C     -1.969415    2.322605    1.142697
| 19> N     -1.291519    1.276410    0.621680
| 20> C      1.584577    0.227380   -0.650991
| 21> C      1.811785    0.265684    0.722928
| 22> C      3.106310    0.479750    1.190392
| 23> C      4.139427    0.648527    0.278542
| 24> C      3.832943    0.595083   -1.069746
| 25> N      2.587954    0.388280   -1.552183
| 26> H     -1.890066   -4.820102    1.193321
| 27> H      0.460978   -4.644625    0.416281
| 28> H      1.252830   -2.607754   -0.697597
| 29> H     -2.684107   -0.876036   -0.275148
| 30> H     -3.450573   -2.924514    0.830154
| 31> H     -1.009696    2.459144   -2.538626
| 32> H     -2.257983    4.351568   -1.532637
| 33> H     -2.881912    4.252603    0.886321
| 34> H     -2.215539    2.233697    2.196925
| 35> H      0.996624    0.130363    1.427868
| 36> H      3.301062    0.513773    2.258255
| 37> H      5.157599    0.817447    0.609595
| 38> H      4.604423    0.720557   -1.823931
| 39> **                         ****END OF INPUT****
 Total Charge           Charge          ....    0
 Multiplicity           Mult            ....    1
 Number of Electrons    NEL             ....  138
Dispersion correction           -0.079973009
FINAL SINGLE POINT ENERGY     -1067.317810742538
Dispersion correction             ... done (  0.1 sec)
Dispersion correction           -0.080290240
FINAL SINGLE POINT ENERGY     -1067.322467573195
Dispersion correction             ... done (  0.1 sec)
Dispersion correction           -0.080426104
FINAL SINGLE POINT ENERGY     -1067.323796151684
Dispersion correction             ... done (  0.1 sec)
FINAL SINGLE POINT ENERGY     -1067.323793529417
FINAL SINGLE POINT ENERGY     -1067.323991555175
FINAL SINGLE POINT ENERGY     -1067.323995131357
FINAL SINGLE POINT ENERGY     -1067.324014455930
FINAL SINGLE POINT ENERGY     -1067.324019710587
FINAL SINGLE POINT ENERGY     -1067.324025957054
FINAL SINGLE POINT ENERGY     -1067.324046542645
FINAL SINGLE POINT ENERGY     -1067.325783572679
FINAL SINGLE POINT ENERGY     -1067.326095539365
FINAL SINGLE POINT ENERGY     -1067.326644108500
FINAL SINGLE POINT ENERGY     -1067.326862374293
FINAL SINGLE POINT ENERGY     -1067.326941110835
FINAL SINGLE POINT ENERGY     -1067.326973225578
FINAL SINGLE POINT ENERGY     -1067.326985920956
Dispersion correction             ... done (  0.1 sec)
Dispersion correction           -0.079693078
FINAL SINGLE POINT ENERGY     -1067.326988365392
Dispersion correction             ... done (  0.1 sec)
Dispersion correction           -0.079690354
FINAL SINGLE POINT ENERGY     -1067.326989301794
Dispersion correction             ... done (  0.1 sec)
                    ***********************HURRAY********************

CARTESIAN COORDINATES (ANGSTROEM)
---------------------------------
  C     -1.733998   -3.717904    0.851768
  C     -1.321914   -3.854441   -0.475684
  C     -0.729238   -2.773167   -1.136826
  C     -0.538022   -1.548797   -0.477758
  C     -0.955310   -1.421185    0.859582
  C     -1.550527   -2.499292    1.516573
  P      0.273502   -0.183348   -1.427252
  C     -0.789760    1.275506   -0.961342
  C     -1.529348    1.905141   -1.972449
  C     -2.325558    3.004839   -1.643813
  C     -2.349317    3.440927   -0.319277
  C     -1.577236    2.747131    0.619981
  N     -0.821102    1.694463    0.311278
  C      1.739690    0.202468   -0.363535
  C      2.322693   -0.716611    0.521719
  C      3.474234   -0.337140    1.213849
  C      4.001111    0.938129    1.002921
  C      3.351579    1.776452    0.090016
  N      2.258814    1.418737   -0.582678
  H     -2.199370   -4.560293    1.370460
  H     -1.463416   -4.802988   -1.000335
  H     -0.409962   -2.877909   -2.177587
  H     -0.811986   -0.467490    1.371806
  H     -1.873745   -2.389775    2.555381
  H     -1.468660    1.537259   -2.999044
  H     -2.911431    3.516250   -2.412247
  H     -2.950200    4.300403   -0.013351
  H     -1.573839    3.059883    1.671060
  H      1.876097   -1.700395    0.672601
  H      3.949970   -1.028678    1.914703
  H      4.896728    1.278625    1.527470
  H      3.739523    2.783202   -0.107993

 Multiplicity           Mult            ....    1
 Number of Electrons    NEL             ....  138
 Basis Dimension        Dim             ....  335

ORBITAL ENERGIES
----------------

  NO   OCC          E(Eh)            E(eV)
   0   2.0000     -77.044462     -2096.4864
   1   2.0000     -14.322327      -389.7303
   2   2.0000     -14.312784      -389.4706
   3   2.0000     -10.223766      -278.2028
   4   2.0000     -10.221728      -278.1474
   5   2.0000     -10.216484      -278.0047
   6   2.0000     -10.216234      -277.9979
   7   2.0000     -10.208712      -277.7932
   8   2.0000     -10.201969      -277.6097
   9   2.0000     -10.200546      -277.5710
  10   2.0000     -10.198810      -277.5237
  11   2.0000     -10.191693      -277.3301
  12   2.0000     -10.190806      -277.3059
  13   2.0000     -10.190742      -277.3042
  14   2.0000     -10.190260      -277.2911
  15   2.0000     -10.188637      -277.2469
  16   2.0000     -10.188354      -277.2392
  17   2.0000     -10.187698      -277.2214
  18   2.0000     -10.184615      -277.1375
  19   2.0000      -6.541738      -178.0097
  20   2.0000      -4.707151      -128.0881
  21   2.0000      -4.706940      -128.0824
  22   2.0000      -4.704177      -128.0072
  23   2.0000      -0.936133       -25.4735
  24   2.0000      -0.926946       -25.2235
  25   2.0000      -0.844027       -22.9671
  26   2.0000      -0.796336       -21.6694
  27   2.0000      -0.788758       -21.4632
  28   2.0000      -0.768393       -20.9090
  29   2.0000      -0.748007       -20.3543
  30   2.0000      -0.735819       -20.0227
  31   2.0000      -0.733344       -19.9553
  32   2.0000      -0.656527       -17.8650
  33   2.0000      -0.625527       -17.0215
  34   2.0000      -0.618943       -16.8423
  35   2.0000      -0.614299       -16.7159
  36   2.0000      -0.597228       -16.2514
  37   2.0000      -0.593388       -16.1469
  38   2.0000      -0.559534       -15.2257
  39   2.0000      -0.516219       -14.0470
  40   2.0000      -0.512743       -13.9524
  41   2.0000      -0.495073       -13.4716
  42   2.0000      -0.484698       -13.1893
  43   2.0000      -0.478674       -13.0254
  44   2.0000      -0.454809       -12.3760
  45   2.0000      -0.449926       -12.2431
  46   2.0000      -0.446200       -12.1417
  47   2.0000      -0.438769       -11.9395
  48   2.0000      -0.419095       -11.4042
  49   2.0000      -0.418860       -11.3978
  50   2.0000      -0.413321       -11.2470
  51   2.0000      -0.406879       -11.0717
  52   2.0000      -0.399419       -10.8688
  53   2.0000      -0.392855       -10.6901
  54   2.0000      -0.387735       -10.5508
  55   2.0000      -0.376399       -10.2423
  56   2.0000      -0.365092        -9.9346
  57   2.0000      -0.342509        -9.3201
  58   2.0000      -0.341807        -9.3010
  59   2.0000      -0.329178        -8.9574
  60   2.0000      -0.293226        -7.9791
  61   2.0000      -0.285299        -7.7634
  62   2.0000      -0.274063        -7.4576
  63   2.0000      -0.268227        -7.2988
  64   2.0000      -0.258703        -7.0397
  65   2.0000      -0.253032        -6.8853
  66   2.0000      -0.250252        -6.8097
  67   2.0000      -0.239858        -6.5269
  68   2.0000      -0.221740        -6.0338
  69   0.0000      -0.039918        -1.0862
  70   0.0000      -0.028516        -0.7760
  71   0.0000      -0.023963        -0.6521
  72   0.0000      -0.013839        -0.3766
  73   0.0000      -0.011613        -0.3160

MULLIKEN ATOMIC CHARGES
-----------------------
   0 C :    0.025445
   1 C :    0.017792
   2 C :    0.021414
   3 C :   -0.182266
   4 C :    0.026292
   5 C :    0.024545
   6 P :    0.380499
   7 C :   -0.141059
   8 C :    0.048764
   9 C :    0.058061
  10 C :   -0.001622
  11 C :    0.044120
  12 N :   -0.092469
  13 C :   -0.133826
  14 C :    0.029228
  15 C :    0.059094
  16 C :   -0.005998
  17 C :    0.039495
  18 N :   -0.115918
  19 H :   -0.015590
  20 H :   -0.016500
  21 H :   -0.020030
  22 H :   -0.002113
  23 H :   -0.018396
  24 H :   -0.008277
  25 H :   -0.001270
  26 H :   -0.004601
  27 H :    0.001390
  28 H :    0.003060
  29 H :   -0.007265
  30 H :   -0.010118
  31 H :   -0.001881
Sum of atomic charges:   -0.0000000

LOEWDIN ATOMIC CHARGES
----------------------
   0 C :   -0.019261
   1 C :   -0.029967
   2 C :   -0.030355
   3 C :   -0.181820
   4 C :   -0.017656
   5 C :   -0.028286
   6 P :    0.499535
   7 C :   -0.117776
   8 C :   -0.040857
   9 C :    0.003769
  10 C :   -0.040794
  11 C :    0.022537
  12 N :   -0.080214
  13 C :   -0.121425
  14 C :   -0.049087
  15 C :    0.002563
  16 C :   -0.050019
  17 C :    0.021767
  18 N :   -0.095220
  19 H :    0.026632
  20 H :    0.026814
  21 H :    0.023150
  22 H :    0.026389
  23 H :    0.026432
  24 H :    0.029486
  25 H :    0.032185
  26 H :    0.031112
  27 H :    0.020644
  28 H :    0.031108
  29 H :    0.030241
  30 H :    0.028885
  31 H :    0.019489

  Mayer bond orders larger than 0.100000
B(  0-C ,  1-C ) :   1.3931 B(  0-C ,  5-C ) :   1.3652 B(  0-C , 19-H ) :   0.9845
B(  1-C ,  2-C ) :   1.3787 B(  1-C , 20-H ) :   0.9853 B(  2-C ,  3-C ) :   1.3924
B(  2-C , 21-H ) :   0.9856 B(  3-C ,  4-C ) :   1.3622 B(  3-C ,  6-P ) :   0.9316
B(  4-C ,  5-C ) :   1.3982 B(  4-C , 22-H ) :   0.9693 B(  5-C , 23-H ) :   0.9852
B(  6-P ,  7-C ) :   0.9170 B(  6-P , 13-C ) :   0.9122 B(  7-C ,  8-C ) :   1.3821
B(  7-C , 12-N ) :   1.4513 B(  8-C ,  9-C ) :   1.4016 B(  8-C , 24-H ) :   0.9703
B(  9-C , 10-C ) :   1.4182 B(  9-C , 25-H ) :   0.9783 B( 10-C , 11-C ) :   1.3650
B( 10-C , 26-H ) :   0.9710 B( 11-C , 12-N ) :   1.5363 B( 11-C , 27-H ) :   0.9725
B( 13-C , 14-C ) :   1.3764 B( 13-C , 18-N ) :   1.4457 B( 14-C , 15-C ) :   1.4187
B( 14-C , 28-H ) :   0.9631 B( 15-C , 16-C ) :   1.4115 B( 15-C , 29-H ) :   0.9766
B( 16-C , 17-C ) :   1.3718 B( 16-C , 30-H ) :   0.9701 B( 17-C , 18-N ) :   1.5496
B( 17-C , 31-H ) :   0.9712

Dispersion correction           -0.079688887
FINAL SINGLE POINT ENERGY     -1067.326989616103

DIPOLE MOMENT
-------------

Method             : SCF
Type of density    : Electron Density
Multiplicity       :   1
Irrep              :   0
Energy             : -1067.2473007290266196 Eh
Relativity type    :
Basis              : AO
                                X                 Y                 Z
Electronic contribution:      1.924133981       1.903022545      -5.344081158
Nuclear contribution   :     -2.272845071      -1.841374695       5.799650192
                        -----------------------------------------
Total Dipole Moment    :     -0.348711089       0.061647851       0.455569033
                        -----------------------------------------
Magnitude (a.u.)       :      0.577012154
Magnitude (Debye)      :      1.466648338

Rotational constants in cm-1:             0.012850             0.011355             0.007292
Rotational constants in MHz :           385.242422           340.400833           218.614284

                             ****ORCA TERMINATED NORMALLY****
TOTAL RUN TIME: 0 days 0 hours 21 minutes 15 seconds 903 msec
