                         Program Version 6.0.0  -   RELEASE   -
|  1> ! RIJONX B3LYP def2-SVP D3BJ TIGHTSCF Opt
|  2> %pal
|  3> nprocs 6
|  4> end
|  5>
|  6> * xyz 0 1
|  7> C     -3.030930   -3.284337   -0.981055
|  8> C     -1.675783   -3.534638   -0.789495
|  9> C     -0.860761   -2.568228   -0.190836
| 10> C     -1.377135   -1.323324    0.204382
| 11> C     -2.756792   -1.110571    0.037536
| 12> C     -3.573966   -2.074717   -0.560551
| 13> P     -0.345560   -0.072851    1.032682
| 14> C     -0.818498    1.531756    0.301556
| 15> C     -0.650901    2.680475    1.094184
| 16> C     -0.981274    3.948121    0.607403
| 17> C     -1.482524    4.089595   -0.683066
| 18> C     -1.649702    2.965072   -1.486501
| 19> C     -1.317880    1.697215   -0.998637
| 20> C      1.335319   -0.259789    0.319382
| 21> C      1.514544   -0.407078   -1.071930
| 22> C      2.782242   -0.582438   -1.635364
| 23> C      3.908261   -0.612937   -0.822508
| 24> C      3.766321   -0.458947    0.554049
| 25> C      2.493196   -0.277678    1.127344
| 26> C      2.440831   -0.071727    2.595413
| 27> O      1.821379    0.776587    3.206409
| 28> O      3.203506   -0.979854    3.235048
| 29> H     -3.665465   -4.036808   -1.441477
| 30> H     -1.250119   -4.487149   -1.094619
| 31> H      0.186837   -2.813950   -0.030197
| 32> H     -3.218237   -0.185001    0.378649
| 33> H     -4.635994   -1.880707   -0.686527
| 34> H     -0.252737    2.598069    2.105489
| 35> H     -0.842590    4.821950    1.238521
| 36> H     -1.738770    5.074866   -1.062935
| 37> H     -2.036774    3.071801   -2.496483
| 38> H     -1.455551    0.843374   -1.656962
| 39> H      0.659512   -0.396557   -1.744749
| 40> H      2.884037   -0.695731   -2.712110
| 41> H      4.894676   -0.748827   -1.258389
| 42> H      4.653498   -0.470264    1.183949
| 43> H      3.073783   -0.764774    4.182392
| 44> **                         ****END OF INPUT****
 Total Charge           Charge          ....    0
 Multiplicity           Mult            ....    1
 Number of Electrons    NEL             ....  160
Dispersion correction           -0.094794449
FINAL SINGLE POINT ENERGY     -1223.638633748598
Dispersion correction             ... done (  0.1 sec)
Dispersion correction           -0.095749599
FINAL SINGLE POINT ENERGY     -1223.643136335006
Dispersion correction             ... done (  0.1 sec)
Dispersion correction           -0.096036634
FINAL SINGLE POINT ENERGY     -1223.644411330780
Dispersion correction             ... done (  0.1 sec)
FINAL SINGLE POINT ENERGY     -1223.644190430963
FINAL SINGLE POINT ENERGY     -1223.644400653678
FINAL SINGLE POINT ENERGY     -1223.645294771286
FINAL SINGLE POINT ENERGY     -1223.646165978032
FINAL SINGLE POINT ENERGY     -1223.646465440836
FINAL SINGLE POINT ENERGY     -1223.646905358266
FINAL SINGLE POINT ENERGY     -1223.647606235836
FINAL SINGLE POINT ENERGY     -1223.650457285365
FINAL SINGLE POINT ENERGY     -1223.651197364728
FINAL SINGLE POINT ENERGY     -1223.651387084049
FINAL SINGLE POINT ENERGY     -1223.651476281032
FINAL SINGLE POINT ENERGY     -1223.651535621731
FINAL SINGLE POINT ENERGY     -1223.651562094189
FINAL SINGLE POINT ENERGY     -1223.651574996882
Dispersion correction             ... done (  0.1 sec)
Dispersion correction           -0.096874239
FINAL SINGLE POINT ENERGY     -1223.651578836580
Dispersion correction             ... done (  0.1 sec)
Dispersion correction           -0.096868565
FINAL SINGLE POINT ENERGY     -1223.651580812536
Dispersion correction             ... done (  0.1 sec)
                    ***********************HURRAY********************

CARTESIAN COORDINATES (ANGSTROEM)
---------------------------------
  C     -3.150865   -3.017879   -1.283951
  C     -2.413534   -3.560529   -0.226905
  C     -1.536506   -2.751382    0.499401
  C     -1.364212   -1.395508    0.170046
  C     -2.114905   -0.860900   -0.889843
  C     -3.002464   -1.666176   -1.609395
  P     -0.173669   -0.428369    1.216497
  C     -0.687041    1.296427    0.798294
  C     -1.648781    1.897866    1.624401
  C     -2.107328    3.190462    1.360092
  C     -1.598920    3.905655    0.271551
  C     -0.633394    3.318679   -0.551595
  C     -0.182261    2.021431   -0.291907
  C      1.384136   -0.608668    0.208952
  C      1.412266   -1.426606   -0.933224
  C      2.588157   -1.633974   -1.657779
  C      3.780624   -1.027897   -1.257205
  C      3.782480   -0.216848   -0.125082
  C      2.604435   -0.001904    0.610212
  C      2.652808    0.864799    1.816561
  O      1.694002    1.166842    2.492843
  O      3.893977    1.303051    2.118657
  H     -3.845211   -3.645703   -1.848413
  H     -2.529863   -4.614417    0.039513
  H     -0.972469   -3.174512    1.336190
  H     -2.003511    0.191845   -1.156029
  H     -3.581222   -1.234826   -2.430644
  H     -2.036421    1.347452    2.486145
  H     -2.858034    3.644787    2.012123
  H     -1.951999    4.919741    0.067137
  H     -0.230391    3.872300   -1.404024
  H      0.567398    1.569949   -0.945318
  H      0.494312   -1.907743   -1.270102
  H      2.566319   -2.271843   -2.545385
  H      4.702301   -1.185373   -1.822133
  H      4.701951    0.264775    0.207662
  H      3.797836    1.854994    2.912654

 Multiplicity           Mult            ....    1
 Number of Electrons    NEL             ....  160
 Basis Dimension        Dim             ....  387

ORBITAL ENERGIES
----------------

  NO   OCC          E(Eh)            E(eV)
   0   2.0000     -77.050094     -2096.6396
   1   2.0000     -19.180036      -521.9153
   2   2.0000     -19.123955      -520.3893
   3   2.0000     -10.316758      -280.7333
   4   2.0000     -10.207827      -277.7691
   5   2.0000     -10.205873      -277.7159
   6   2.0000     -10.201478      -277.5963
   7   2.0000     -10.201083      -277.5856
   8   2.0000     -10.197971      -277.5009
   9   2.0000     -10.195042      -277.4212
  10   2.0000     -10.190068      -277.2859
  11   2.0000     -10.189270      -277.2641
  12   2.0000     -10.188893      -277.2539
  13   2.0000     -10.188463      -277.2422
  14   2.0000     -10.187020      -277.2029
  15   2.0000     -10.186722      -277.1948
  16   2.0000     -10.186529      -277.1895
  17   2.0000     -10.186319      -277.1838
  18   2.0000     -10.185959      -277.1740
  19   2.0000     -10.185259      -277.1550
  20   2.0000     -10.185127      -277.1514
  21   2.0000     -10.184649      -277.1384
  22   2.0000      -6.544582      -178.0871
  23   2.0000      -4.710088      -128.1680
  24   2.0000      -4.709895      -128.1628
  25   2.0000      -4.707173      -128.0887
  26   2.0000      -1.097607       -29.8674
  27   2.0000      -1.003830       -27.3156
  28   2.0000      -0.859747       -23.3949
  29   2.0000      -0.845103       -22.9964
  30   2.0000      -0.839814       -22.8525
  31   2.0000      -0.767029       -20.8719
  32   2.0000      -0.762082       -20.7373
  33   2.0000      -0.738226       -20.0881
  34   2.0000      -0.735087       -20.0027
  35   2.0000      -0.731555       -19.9066
  36   2.0000      -0.728867       -19.8335
  37   2.0000      -0.663080       -18.0433
  38   2.0000      -0.635463       -17.2918
  39   2.0000      -0.609146       -16.5757
  40   2.0000      -0.597219       -16.2512
  41   2.0000      -0.594071       -16.1655
  42   2.0000      -0.585247       -15.9254
  43   2.0000      -0.581187       -15.8149
  44   2.0000      -0.552228       -15.0269
  45   2.0000      -0.527243       -14.3470
  46   2.0000      -0.511193       -13.9103
  47   2.0000      -0.497280       -13.5317
  48   2.0000      -0.481402       -13.0996
  49   2.0000      -0.472469       -12.8565
  50   2.0000      -0.460293       -12.5252
  51   2.0000      -0.455264       -12.3884
  52   2.0000      -0.451293       -12.2803
  53   2.0000      -0.448217       -12.1966
  54   2.0000      -0.442581       -12.0432
  55   2.0000      -0.440608       -11.9896
  56   2.0000      -0.436429       -11.8758
  57   2.0000      -0.418460       -11.3869
  58   2.0000      -0.416056       -11.3215
  59   2.0000      -0.412548       -11.2260
  60   2.0000      -0.402998       -10.9661
  61   2.0000      -0.396944       -10.8014
  62   2.0000      -0.376062       -10.2332
  63   2.0000      -0.370153       -10.0724
  64   2.0000      -0.367735       -10.0066
  65   2.0000      -0.361832        -9.8460
  66   2.0000      -0.356423        -9.6988
  67   2.0000      -0.342361        -9.3161
  68   2.0000      -0.341024        -9.2797
  69   2.0000      -0.327408        -8.9092
  70   2.0000      -0.324048        -8.8178
  71   2.0000      -0.320335        -8.7168
  72   2.0000      -0.290298        -7.8994
  73   2.0000      -0.271926        -7.3995
  74   2.0000      -0.266939        -7.2638
  75   2.0000      -0.257599        -7.0096
  76   2.0000      -0.254760        -6.9324
  77   2.0000      -0.249589        -6.7917
  78   2.0000      -0.248564        -6.7638
  79   2.0000      -0.212586        -5.7847
  80   0.0000      -0.056452        -1.5361
  81   0.0000      -0.024366        -0.6630
  82   0.0000      -0.019009        -0.5173
  83   0.0000      -0.009682        -0.2635
  84   0.0000      -0.005886        -0.1602

MULLIKEN ATOMIC CHARGES
-----------------------
   0 C :    0.022421
   1 C :    0.021476
   2 C :    0.019405
   3 C :   -0.185320
   4 C :    0.024457
   5 C :    0.026635
   6 P :    0.401942
   7 C :   -0.127487
   8 C :    0.033821
   9 C :    0.019224
  10 C :    0.023066
  11 C :    0.020800
  12 C :    0.012730
  13 C :   -0.156757
  14 C :    0.006755
  15 C :    0.042871
  16 C :    0.031933
  17 C :    0.016792
  18 C :   -0.041978
  19 C :    0.170513
  20 O :   -0.209258
  21 O :   -0.174473
  22 H :   -0.016140
  23 H :   -0.016697
  24 H :   -0.016943
  25 H :   -0.008553
  26 H :   -0.018964
  27 H :   -0.017803
  28 H :   -0.017556
  29 H :   -0.018348
  30 H :   -0.021431
  31 H :   -0.009176
  32 H :    0.009538
  33 H :   -0.011851
  34 H :   -0.013075
  35 H :   -0.004366
  36 H :    0.181799
Sum of atomic charges:   -0.0000000

LOEWDIN ATOMIC CHARGES
----------------------
   0 C :   -0.023168
   1 C :   -0.027796
   2 C :   -0.031412
   3 C :   -0.180030
   4 C :   -0.027955
   5 C :   -0.026376
   6 P :    0.534430
   7 C :   -0.157419
   8 C :   -0.022181
   9 C :   -0.024518
  10 C :   -0.025300
  11 C :   -0.027931
  12 C :   -0.035903
  13 C :   -0.137245
  14 C :   -0.031358
  15 C :   -0.005660
  16 C :   -0.027063
  17 C :    0.003504
  18 C :   -0.083577
  19 C :    0.086682
  20 O :   -0.172581
  21 O :   -0.039218
  22 H :    0.026512
  23 H :    0.026948
  24 H :    0.023418
  25 H :    0.028458
  26 H :    0.026629
  27 H :    0.025377
  28 H :    0.026792
  29 H :    0.025758
  30 H :    0.025606
  31 H :    0.025037
  32 H :    0.032667
  33 H :    0.030370
  34 H :    0.029382
  35 H :    0.032362
  36 H :    0.096760

  Mayer bond orders larger than 0.100000
B(  0-C ,  1-C ) :   1.3786 B(  0-C ,  5-C ) :   1.3768 B(  0-C , 22-H ) :   0.9842
B(  1-C ,  2-C ) :   1.3969 B(  1-C , 23-H ) :   0.9855 B(  2-C ,  3-C ) :   1.3759
B(  2-C , 24-H ) :   0.9816 B(  3-C ,  4-C ) :   1.3764 B(  3-C ,  6-P ) :   0.8892
B(  4-C ,  5-C ) :   1.3890 B(  4-C , 25-H ) :   0.9796 B(  5-C , 26-H ) :   0.9838
B(  6-P ,  7-C ) :   0.9394 B(  6-P , 13-C ) :   0.9398 B(  7-C ,  8-C ) :   1.3850
B(  7-C , 12-C ) :   1.3793 B(  8-C ,  9-C ) :   1.3974 B(  8-C , 27-H ) :   0.9816
B(  9-C , 10-C ) :   1.3789 B(  9-C , 28-H ) :   0.9846 B( 10-C , 11-C ) :   1.3790
B( 10-C , 29-H ) :   0.9844 B( 11-C , 12-C ) :   1.3847 B( 11-C , 30-H ) :   0.9841
B( 12-C , 31-H ) :   0.9780 B( 13-C , 14-C ) :   1.3933 B( 13-C , 18-C ) :   1.3768
B( 14-C , 15-C ) :   1.3793 B( 14-C , 32-H ) :   0.9735 B( 15-C , 16-C ) :   1.3569
B( 15-C , 33-H ) :   0.9841 B( 16-C , 17-C ) :   1.3635 B( 16-C , 34-H ) :   0.9862
B( 17-C , 18-C ) :   1.3723 B( 17-C , 35-H ) :   0.9806 B( 18-C , 19-C ) :   0.9513
B( 19-C , 20-O ) :   2.0335 B( 19-C , 21-O ) :   1.2595 B( 21-O , 36-H ) :   0.9442

Dispersion correction           -0.096865979
FINAL SINGLE POINT ENERGY     -1223.651581284477

DIPOLE MOMENT
-------------

Method             : SCF
Type of density    : Electron Density
Multiplicity       :   1
Irrep              :   0
Energy             : -1223.5547153058096228 Eh
Relativity type    :
Basis              : AO
                                X                 Y                 Z
Electronic contribution:      5.512573170       0.184760014       8.281164145
Nuclear contribution   :     -5.072025384      -0.175861715      -8.966674868
                        -----------------------------------------
Total Dipole Moment    :      0.440547786       0.008898299      -0.685510722
                        -----------------------------------------
Magnitude (a.u.)       :      0.814915015
Magnitude (Debye)      :      2.071349355

Rotational constants in cm-1:             0.010730             0.008314             0.005740
Rotational constants in MHz :           321.672677           249.249988           172.084835

                             ****ORCA TERMINATED NORMALLY****
TOTAL RUN TIME: 0 days 0 hours 23 minutes 28 seconds 117 msec
