                         Program Version 6.0.0  -   RELEASE   -
|  1> ! RI BP86 def2-SVP D3BJ TIGHTSCF Opt
|  2> %pal
|  3> nprocs 6
|  4> end
|  5>
|  6> * xyz 0 1
|  7> C      2.881618    0.060742    1.003614
|  8> C      1.966676    0.210064    2.041579
|  9> C      0.596015    0.206913    1.771323
| 10> C      0.120404    0.054480    0.459860
| 11> C      1.054475   -0.094707   -0.573616
| 12> C      2.425998   -0.091546   -0.303120
| 13> P     -1.677755    0.061692    0.196624
| 14> C     -1.882751    1.310487   -1.140338
| 15> O     -1.564952    2.648533   -0.779291
| 16> C     -1.944404   -1.466064   -0.795261
| 17> O     -1.683439   -2.687681   -0.116092
| 18> H      3.948349    0.063039    1.212697
| 19> H      2.317573    0.329297    3.063636
| 20> H     -0.097447    0.325641    2.602709
| 21> H      0.739826   -0.216147   -1.606948
| 22> H      3.139428   -0.208342   -1.115386
| 23> H     -2.926992    1.307450   -1.468541
| 24> H     -1.276860    1.057140   -2.015534
| 25> H     -0.850646    2.575285   -0.122326
| 26> H     -2.989283   -1.497777   -1.119898
| 27> H     -1.332782   -1.461282   -1.702539
| 28> H     -0.963051   -2.487219    0.506850
| 29> **                         ****END OF INPUT****
 Total Charge           Charge          ....    0
 Multiplicity           Mult            ....    1
 Number of Electrons    NEL             ....   90
Dispersion correction           -0.041874187
FINAL SINGLE POINT ENERGY      -802.866811272530
Dispersion correction             ... done (  0.1 sec)
Dispersion correction           -0.041989969
FINAL SINGLE POINT ENERGY      -802.873420638666
Dispersion correction             ... done (  0.1 sec)
Dispersion correction           -0.042216610
FINAL SINGLE POINT ENERGY      -802.876026488479
Dispersion correction             ... done (  0.1 sec)
FINAL SINGLE POINT ENERGY      -802.877508952854
FINAL SINGLE POINT ENERGY      -802.878492686107
FINAL SINGLE POINT ENERGY      -802.878710229698
FINAL SINGLE POINT ENERGY      -802.878805702088
Dispersion correction             ... done (  0.1 sec)
Dispersion correction           -0.042779098
FINAL SINGLE POINT ENERGY      -802.878822476417
Dispersion correction             ... done (  0.1 sec)
Dispersion correction           -0.042767605
FINAL SINGLE POINT ENERGY      -802.878826749874
Dispersion correction             ... done (  0.1 sec)
                    ***********************HURRAY********************

CARTESIAN COORDINATES (ANGSTROEM)
---------------------------------
  C      2.788494    0.061253    1.023100
  C      1.880684    0.193424    2.086828
  C      0.498467    0.199985    1.835177
  C      0.001135    0.073100    0.519618
  C      0.928068   -0.060801   -0.541747
  C      2.310105   -0.065710   -0.292741
  P     -1.848494    0.086247    0.273033
  C     -1.871135    1.363507   -1.142382
  O     -1.247960    2.569782   -0.765554
  C     -1.936919   -1.518366   -0.754423
  O     -1.372723   -2.609829   -0.064985
  H      3.871835    0.056850    1.218275
  H      2.250752    0.292659    3.118880
  H     -0.216911    0.304771    2.666314
  H      0.569327   -0.163477   -1.579059
  H      3.017897   -0.169829   -1.129727
  H     -2.931472    1.596164   -1.374330
  H     -1.425700    0.910774   -2.066936
  H     -0.336886    2.343450   -0.489259
  H     -3.007690   -1.753701   -0.928816
  H     -1.470619   -1.347240   -1.760037
  H     -0.450257   -2.363014    0.148774

 Multiplicity           Mult            ....    1
 Number of Electrons    NEL             ....   90
 Basis Dimension        Dim             ....  213

ORBITAL ENERGIES
----------------

  NO   OCC          E(Eh)            E(eV)
   0   2.0000     -76.335453     -2077.1933
   1   2.0000     -18.781717      -511.0765
   2   2.0000     -18.781702      -511.0761
   3   2.0000      -9.965852      -271.1846
   4   2.0000      -9.965794      -271.1830
   5   2.0000      -9.943174      -270.5675
   6   2.0000      -9.940495      -270.4946
   7   2.0000      -9.940449      -270.4934
   8   2.0000      -9.940088      -270.4836
   9   2.0000      -9.938253      -270.4336
  10   2.0000      -9.938084      -270.4290
  11   2.0000      -6.307183      -171.6272
  12   2.0000      -4.528701      -123.2322
  13   2.0000      -4.528261      -123.2202
  14   2.0000      -4.524763      -123.1251
  15   2.0000      -0.927738       -25.2450
  16   2.0000      -0.926536       -25.2123
  17   2.0000      -0.789113       -21.4729
  18   2.0000      -0.696430       -18.9508
  19   2.0000      -0.686935       -18.6925
  20   2.0000      -0.645400       -17.5622
  21   2.0000      -0.598551       -16.2874
  22   2.0000      -0.564941       -15.3728
  23   2.0000      -0.557853       -15.1800
  24   2.0000      -0.515366       -14.0238
  25   2.0000      -0.471282       -12.8242
  26   2.0000      -0.454712       -12.3733
  27   2.0000      -0.446477       -12.1493
  28   2.0000      -0.421582       -11.4718
  29   2.0000      -0.411464       -11.1965
  30   2.0000      -0.401932       -10.9371
  31   2.0000      -0.391488       -10.6529
  32   2.0000      -0.389676       -10.6036
  33   2.0000      -0.384838       -10.4720
  34   2.0000      -0.361585        -9.8392
  35   2.0000      -0.346407        -9.4262
  36   2.0000      -0.323038        -8.7903
  37   2.0000      -0.318111        -8.6562
  38   2.0000      -0.290039        -7.8924
  39   2.0000      -0.272895        -7.4259
  40   2.0000      -0.254919        -6.9367
  41   2.0000      -0.252889        -6.8815
  42   2.0000      -0.251301        -6.8382
  43   2.0000      -0.211495        -5.7551
  44   2.0000      -0.202621        -5.5136
  45   0.0000      -0.074238        -2.0201
  46   0.0000      -0.063945        -1.7400
  47   0.0000       0.002279         0.0620
  48   0.0000       0.017448         0.4748
  49   0.0000       0.023200         0.6313

MULLIKEN ATOMIC CHARGES
-----------------------
   0 C :    0.001966
   1 C :    0.003587
   2 C :    0.034061
   3 C :   -0.249012
   4 C :   -0.030909
   5 C :    0.018615
   6 P :    0.144459
   7 C :    0.029550
   8 O :   -0.282360
   9 C :    0.031200
  10 O :   -0.282669
  11 H :    0.014344
  12 H :    0.014368
  13 H :    0.013197
  14 H :    0.004792
  15 H :    0.011089
  16 H :    0.062493
  17 H :    0.019711
  18 H :    0.179418
  19 H :    0.062430
  20 H :    0.019789
  21 H :    0.179881
Sum of atomic charges:   -0.0000000

LOEWDIN ATOMIC CHARGES
----------------------
   0 C :   -0.021199
   1 C :   -0.025354
   2 C :   -0.028462
   3 C :   -0.200861
   4 C :   -0.050933
   5 C :   -0.028287
   6 P :    0.399943
   7 C :   -0.079151
   8 O :   -0.125724
   9 C :   -0.078611
  10 O :   -0.125759
  11 H :    0.036813
  12 H :    0.037434
  13 H :    0.035152
  14 H :    0.029819
  15 H :    0.036406
  16 H :    0.025664
  17 H :   -0.005690
  18 H :    0.074143
  19 H :    0.025401
  20 H :   -0.005438
  21 H :    0.074694

  Mayer bond orders larger than 0.100000
B(  0-C ,  1-C ) :   1.3823 B(  0-C ,  5-C ) :   1.3734 B(  0-C , 11-H ) :   0.9760
B(  1-C ,  2-C ) :   1.3850 B(  1-C , 12-H ) :   0.9776 B(  2-C ,  3-C ) :   1.3813
B(  2-C , 13-H ) :   0.9758 B(  3-C ,  4-C ) :   1.3203 B(  3-C ,  6-P ) :   0.9099
B(  4-C ,  5-C ) :   1.3986 B(  4-C , 14-H ) :   0.9737 B(  5-C , 15-H ) :   0.9756
B(  6-P ,  7-C ) :   0.9296 B(  6-P ,  9-C ) :   0.9289 B(  7-C ,  8-O ) :   1.0497
B(  7-C , 16-H ) :   0.9464 B(  7-C , 17-H ) :   0.9033 B(  8-O , 18-H ) :   0.9664
B(  9-C , 10-O ) :   1.0499 B(  9-C , 19-H ) :   0.9468 B(  9-C , 20-H ) :   0.9040
B( 10-O , 21-H ) :   0.9667

Dispersion correction           -0.042759527
FINAL SINGLE POINT ENERGY      -802.878827396249

DIPOLE MOMENT
-------------

Method             : SCF
Type of density    : Electron Density
Multiplicity       :   1
Irrep              :   0
Energy             :  -802.8360678695054276 Eh
Relativity type    :
Basis              : AO
                                X                 Y                 Z
Electronic contribution:     -2.846340667       0.546088135       3.481551439
Nuclear contribution   :      3.940744960      -0.613092265      -3.731868102
                        -----------------------------------------
Total Dipole Moment    :      1.094404293      -0.067004130      -0.250316663
                        -----------------------------------------
Magnitude (a.u.)       :      1.124663835
Magnitude (Debye)      :      2.858668287

Rotational constants in cm-1:             0.041718             0.024992             0.019854
Rotational constants in MHz :          1250.682796           749.255136           595.214303

                             ****ORCA TERMINATED NORMALLY****
TOTAL RUN TIME: 0 days 0 hours 1 minutes 4 seconds 439 msec
