                         Program Version 6.0.0  -   RELEASE   -
|  1> ! RI BP86 def2-SVP D3BJ TIGHTSCF Opt
|  2> %pal
|  3> nprocs 6
|  4> end
|  5>
|  6> * xyz 0 1
|  7> C      0.323191    5.659333    0.730157
|  8> C      0.810007    5.054557   -0.577663
|  9> C      0.821189    3.523594   -0.579405
| 10> C     -0.578952    2.908586   -0.493459
| 11> C     -0.563726    1.374292   -0.516190
| 12> C     -0.248919    0.799733   -1.896407
| 13> P     -0.065597   -1.019048   -2.047778
| 14> C      1.676697   -1.354860   -1.581582
| 15> C      2.180018   -0.761149   -0.271507
| 16> C      3.605005   -1.233737    0.038484
| 17> C      4.118083   -0.621869    1.344138
| 18> C      5.498500   -1.138647    1.754520
| 19> C      6.607570   -0.735975    0.794942
| 20> C     -1.019232   -1.741350   -0.659412
| 21> C     -2.526130   -1.730031   -0.926913
| 22> C     -3.299774   -2.325114    0.252351
| 23> C     -4.806232   -2.323535   -0.012391
| 24> C     -5.578263   -2.915420    1.166512
| 25> C     -7.076278   -2.917117    0.906896
| 26> H     -0.734857    5.443172    0.903649
| 27> H      0.899401    5.277527    1.578775
| 28> H      0.437797    6.747866    0.705507
| 29> H      0.191811    5.424506   -1.403863
| 30> H      1.831344    5.408041   -0.763617
| 31> H      1.314249    3.196135   -1.500958
| 32> H      1.435936    3.160434    0.253132
| 33> H     -1.052956    3.220617    0.444230
| 34> H     -1.207500    3.286720   -1.308513
| 35> H      0.132501    1.014141    0.246478
| 36> H     -1.558847    1.034625   -0.205113
| 37> H     -1.062769    1.090848   -2.572083
| 38> H      0.657322    1.254243   -2.308651
| 39> H      1.801487   -2.444112   -1.555733
| 40> H      2.312681   -0.994478   -2.399169
| 41> H      2.183305    0.332787   -0.333988
| 42> H      1.523166   -1.041647    0.559357
| 43> H      4.263548   -0.954527   -0.791595
| 44> H      3.620852   -2.327623    0.114459
| 45> H      3.411853   -0.854686    2.150785
| 46> H      4.146095    0.471015    1.255209
| 47> H      5.475743   -2.230574    1.848510
| 48> H      5.736669   -0.740206    2.748017
| 49> H      7.578781   -1.049400    1.191279
| 50> H      6.482444   -1.207836   -0.183941
| 51> H      6.632788    0.349472    0.656365
| 52> H     -0.696723   -2.782001   -0.533675
| 53> H     -0.800276   -1.235811    0.285656
| 54> H     -2.878239   -0.707680   -1.110743
| 55> H     -2.748669   -2.306613   -1.834293
| 56> H     -2.959978   -3.351954    0.434131
| 57> H     -3.086096   -1.747570    1.159972
| 58> H     -5.020443   -2.901893   -0.919438
| 59> H     -5.146251   -1.296978   -0.196034
| 60> H     -5.244418   -3.942932    1.352305
| 61> H     -5.371447   -2.337720    2.074906
| 62> H     -7.320478   -3.514841    0.022864
| 63> H     -7.448106   -1.899871    0.747711
| 64> H     -7.608875   -3.343440    1.762815
| 65> **                         ****END OF INPUT****
 Total Charge           Charge          ....    0
 Multiplicity           Mult            ....    1
 Number of Electrons    NEL             ....  162
Dispersion correction           -0.091176222
FINAL SINGLE POINT ENERGY     -1050.239073060485
Dispersion correction             ... done (  0.1 sec)
Dispersion correction           -0.090343275
FINAL SINGLE POINT ENERGY     -1050.250753890071
Dispersion correction             ... done (  0.1 sec)
Dispersion correction           -0.090063361
FINAL SINGLE POINT ENERGY     -1050.252263762575
Dispersion correction             ... done (  0.1 sec)
FINAL SINGLE POINT ENERGY     -1050.252256346490
FINAL SINGLE POINT ENERGY     -1050.252659537590
FINAL SINGLE POINT ENERGY     -1050.252724353637
FINAL SINGLE POINT ENERGY     -1050.252738177230
FINAL SINGLE POINT ENERGY     -1050.252744180981
Dispersion correction             ... done (  0.1 sec)
Dispersion correction           -0.090066041
FINAL SINGLE POINT ENERGY     -1050.252746295291
Dispersion correction             ... done (  0.1 sec)
Dispersion correction           -0.090049020
FINAL SINGLE POINT ENERGY     -1050.252748221837
Dispersion correction             ... done (  0.1 sec)
                    ***********************HURRAY********************

CARTESIAN COORDINATES (ANGSTROEM)
---------------------------------
  C      0.462767    5.639765    0.716673
  C      0.948281    4.968066   -0.573318
  C      0.883415    3.431937   -0.556980
  C     -0.533497    2.851418   -0.432188
  C     -0.587358    1.314969   -0.502635
  C     -0.288386    0.755194   -1.901081
  P     -0.092869   -1.105205   -2.152915
  C      1.676273   -1.394396   -1.585536
  C      2.180667   -0.806421   -0.262524
  C      3.628788   -1.197331    0.063636
  C      4.136954   -0.585479    1.376016
  C      5.575506   -0.972769    1.756404
  C      6.647411   -0.460958    0.786835
  C     -1.050553   -1.814099   -0.704356
  C     -2.568463   -1.738606   -0.917326
  C     -3.376828   -2.389779    0.211879
  C     -4.894172   -2.307973    0.009769
  C     -5.706932   -2.968126    1.130918
  C     -7.221626   -2.875722    0.922317
  H     -0.610179    5.436897    0.912971
  H      1.034536    5.277450    1.597607
  H      0.584501    6.741224    0.670061
  H      0.353620    5.345913   -1.435668
  H      1.996984    5.278726   -0.773530
  H      1.359422    3.047766   -1.485666
  H      1.506585    3.045378    0.282533
  H     -0.981919    3.179891    0.530088
  H     -1.180025    3.282086   -1.231345
  H      0.119778    0.898258    0.244267
  H     -1.594939    0.973000   -0.184378
  H     -1.088000    1.080254   -2.602049
  H      0.649126    1.190635   -2.312322
  H      1.796682   -2.501557   -1.582677
  H      2.315014   -1.037471   -2.424306
  H      2.113490    0.302343   -0.297002
  H      1.520400   -1.125678    0.573962
  H      4.283037   -0.887268   -0.781180
  H      3.711308   -2.307242    0.116329
  H      3.450606   -0.885905    2.199000
  H      4.060904    0.524779    1.313116
  H      5.645034   -2.081200    1.836928
  H      5.791039   -0.584041    2.775604
  H      7.667381   -0.720601    1.136773
  H      6.530406   -0.891685   -0.228903
  H      6.600805    0.644282    0.684596
  H     -0.735220   -2.878278   -0.625569
  H     -0.769507   -1.331897    0.256829
  H     -2.880668   -0.674597   -1.019841
  H     -2.827475   -2.217580   -1.887835
  H     -3.072963   -3.456987    0.310448
  H     -3.106351   -1.911587    1.181053
  H     -5.161469   -2.777739   -0.964462
  H     -5.195603   -1.239246   -0.082867
  H     -5.405034   -4.036078    1.219005
  H     -5.433341   -2.500101    2.103412
  H     -7.528951   -3.367742   -0.024687
  H     -7.556555   -1.818353    0.866405
  H     -7.781837   -3.360536    1.747712

 Multiplicity           Mult            ....    1
 Number of Electrons    NEL             ....  162
 Basis Dimension        Dim             ....  465

ORBITAL ENERGIES
----------------

  NO   OCC          E(Eh)            E(eV)
   0   2.0000     -76.322792     -2076.8488
   1   2.0000      -9.912369      -269.7293
   2   2.0000      -9.912094      -269.7218
   3   2.0000      -9.911946      -269.7178
   4   2.0000      -9.911374      -269.7022
   5   2.0000      -9.911372      -269.7021
   6   2.0000      -9.911126      -269.6955
   7   2.0000      -9.910971      -269.6912
   8   2.0000      -9.909996      -269.6647
   9   2.0000      -9.909657      -269.6555
  10   2.0000      -9.909415      -269.6489
  11   2.0000      -9.909411      -269.6488
  12   2.0000      -9.909379      -269.6479
  13   2.0000      -9.909043      -269.6388
  14   2.0000      -9.908211      -269.6161
  15   2.0000      -9.907276      -269.5907
  16   2.0000      -9.905795      -269.5504
  17   2.0000      -9.905641      -269.5462
  18   2.0000      -9.904876      -269.5254
  19   2.0000      -6.292442      -171.2261
  20   2.0000      -4.513875      -122.8288
  21   2.0000      -4.513815      -122.8272
  22   2.0000      -4.510164      -122.7278
  23   2.0000      -0.732223       -19.9248
  24   2.0000      -0.726083       -19.7577
  25   2.0000      -0.725158       -19.7326
  26   2.0000      -0.702100       -19.1051
  27   2.0000      -0.688347       -18.7309
  28   2.0000      -0.685932       -18.6652
  29   2.0000      -0.651021       -17.7152
  30   2.0000      -0.630362       -17.1530
  31   2.0000      -0.626547       -17.0492
  32   2.0000      -0.592666       -16.1273
  33   2.0000      -0.575516       -15.6606
  34   2.0000      -0.566554       -15.4167
  35   2.0000      -0.536514       -14.5993
  36   2.0000      -0.522953       -14.2303
  37   2.0000      -0.517480       -14.0813
  38   2.0000      -0.510495       -13.8913
  39   2.0000      -0.502255       -13.6671
  40   2.0000      -0.497525       -13.5383
  41   2.0000      -0.463732       -12.6188
  42   2.0000      -0.429154       -11.6779
  43   2.0000      -0.426393       -11.6028
  44   2.0000      -0.413940       -11.2639
  45   2.0000      -0.407798       -11.0967
  46   2.0000      -0.404558       -11.0086
  47   2.0000      -0.397729       -10.8228
  48   2.0000      -0.395104       -10.7513
  49   2.0000      -0.392354       -10.6765
  50   2.0000      -0.381956       -10.3935
  51   2.0000      -0.374687       -10.1957
  52   2.0000      -0.371550       -10.1104
  53   2.0000      -0.367847       -10.0096
  54   2.0000      -0.357468        -9.7272
  55   2.0000      -0.355302        -9.6683
  56   2.0000      -0.349050        -9.4981
  57   2.0000      -0.344220        -9.3667
  58   2.0000      -0.336582        -9.1589
  59   2.0000      -0.335258        -9.1228
  60   2.0000      -0.327441        -8.9101
  61   2.0000      -0.325194        -8.8490
  62   2.0000      -0.321039        -8.7359
  63   2.0000      -0.314188        -8.5495
  64   2.0000      -0.311714        -8.4822
  65   2.0000      -0.309333        -8.4174
  66   2.0000      -0.300710        -8.1827
  67   2.0000      -0.294239        -8.0067
  68   2.0000      -0.293166        -7.9774
  69   2.0000      -0.288957        -7.8629
  70   2.0000      -0.287705        -7.8288
  71   2.0000      -0.286849        -7.8055
  72   2.0000      -0.283748        -7.7212
  73   2.0000      -0.282564        -7.6890
  74   2.0000      -0.278243        -7.5714
  75   2.0000      -0.277080        -7.5397
  76   2.0000      -0.276584        -7.5262
  77   2.0000      -0.270536        -7.3616
  78   2.0000      -0.258481        -7.0336
  79   2.0000      -0.252906        -6.8819
  80   2.0000      -0.183865        -5.0032
  81   0.0000       0.019735         0.5370
  82   0.0000       0.025968         0.7066
  83   0.0000       0.033980         0.9246
  84   0.0000       0.039061         1.0629
  85   0.0000       0.042586         1.1588

MULLIKEN ATOMIC CHARGES
-----------------------
   0 C :   -0.068143
   1 C :   -0.033908
   2 C :   -0.053349
   3 C :   -0.020639
   4 C :    0.007266
   5 C :   -0.193498
   6 P :    0.143633
   7 C :   -0.164035
   8 C :   -0.025643
   9 C :   -0.037921
  10 C :   -0.028999
  11 C :   -0.030089
  12 C :   -0.068507
  13 C :   -0.169748
  14 C :    0.004000
  15 C :   -0.025852
  16 C :   -0.037237
  17 C :   -0.051392
  18 C :   -0.041353
  19 H :    0.034149
  20 H :    0.025771
  21 H :    0.030041
  22 H :    0.017490
  23 H :    0.017865
  24 H :    0.016672
  25 H :    0.017307
  26 H :    0.015863
  27 H :    0.007750
  28 H :    0.013026
  29 H :    0.018452
  30 H :    0.050642
  31 H :    0.045883
  32 H :    0.043582
  33 H :    0.046379
  34 H :    0.029767
  35 H :    0.022743
  36 H :    0.013444
  37 H :    0.009324
  38 H :    0.011652
  39 H :    0.010948
  40 H :    0.016459
  41 H :    0.017666
  42 H :    0.029853
  43 H :    0.034066
  44 H :    0.025808
  45 H :    0.040385
  46 H :    0.039912
  47 H :    0.016261
  48 H :    0.020998
  49 H :    0.010639
  50 H :    0.008455
  51 H :    0.012136
  52 H :    0.010116
  53 H :    0.017180
  54 H :    0.016313
  55 H :    0.026382
  56 H :    0.025683
  57 H :    0.028349
Sum of atomic charges:   -0.0000000

LOEWDIN ATOMIC CHARGES
----------------------
   0 C :   -0.077294
   1 C :   -0.050631
   2 C :   -0.050046
   3 C :   -0.044420
   4 C :   -0.055612
   5 C :   -0.196844
   6 P :    0.440713
   7 C :   -0.193951
   8 C :   -0.058314
   9 C :   -0.046416
  10 C :   -0.048006
  11 C :   -0.051203
  12 C :   -0.077124
  13 C :   -0.188549
  14 C :   -0.056036
  15 C :   -0.045766
  16 C :   -0.047625
  17 C :   -0.051629
  18 C :   -0.074798
  19 H :    0.025323
  20 H :    0.026480
  21 H :    0.029594
  22 H :    0.024980
  23 H :    0.026738
  24 H :    0.022682
  25 H :    0.022632
  26 H :    0.024928
  27 H :    0.022961
  28 H :    0.022906
  29 H :    0.026440
  30 H :    0.028381
  31 H :    0.026257
  32 H :    0.028402
  33 H :    0.027787
  34 H :    0.025116
  35 H :    0.022773
  36 H :    0.022519
  37 H :    0.023045
  38 H :    0.024786
  39 H :    0.022464
  40 H :    0.024589
  41 H :    0.026849
  42 H :    0.029584
  43 H :    0.025395
  44 H :    0.026544
  45 H :    0.027760
  46 H :    0.016767
  47 H :    0.021016
  48 H :    0.025735
  49 H :    0.023354
  50 H :    0.022334
  51 H :    0.023664
  52 H :    0.022676
  53 H :    0.024443
  54 H :    0.024054
  55 H :    0.026664
  56 H :    0.026363
  57 H :    0.028563

  Mayer bond orders larger than 0.100000
B(  0-C ,  1-C ) :   1.1107 B(  0-C , 19-H ) :   0.9653 B(  0-C , 20-H ) :   0.9667
B(  0-C , 21-H ) :   0.9617 B(  1-C ,  2-C ) :   1.0937 B(  1-C , 22-H ) :   0.9370
B(  1-C , 23-H ) :   0.9371 B(  2-C ,  3-C ) :   1.0899 B(  2-C , 24-H ) :   0.9290
B(  2-C , 25-H ) :   0.9302 B(  3-C ,  4-C ) :   1.0848 B(  3-C , 26-H ) :   0.9256
B(  3-C , 27-H ) :   0.9330 B(  4-C ,  5-C ) :   1.0574 B(  4-C , 28-H ) :   0.9251
B(  4-C , 29-H ) :   0.9195 B(  5-C ,  6-P ) :   0.9582 B(  5-C , 30-H ) :   0.9348
B(  5-C , 31-H ) :   0.9273 B(  6-P ,  7-C ) :   0.9742 B(  6-P , 13-C ) :   0.9771
B(  7-C ,  8-C ) :   1.0439 B(  7-C , 32-H ) :   0.9327 B(  7-C , 33-H ) :   0.9326
B(  8-C ,  9-C ) :   1.0795 B(  8-C , 34-H ) :   0.9244 B(  8-C , 35-H ) :   0.9324
B(  9-C , 10-C ) :   1.0840 B(  9-C , 36-H ) :   0.9315 B(  9-C , 37-H ) :   0.9340
B( 10-C , 11-C ) :   1.0923 B( 10-C , 38-H ) :   0.9310 B( 10-C , 39-H ) :   0.9341
B( 11-C , 12-C ) :   1.1104 B( 11-C , 40-H ) :   0.9372 B( 11-C , 41-H ) :   0.9360
B( 12-C , 42-H ) :   0.9615 B( 12-C , 43-H ) :   0.9656 B( 12-C , 44-H ) :   0.9669
B( 13-C , 14-C ) :   1.0652 B( 13-C , 45-H ) :   0.9326 B( 13-C , 46-H ) :   0.9071
B( 14-C , 15-C ) :   1.0907 B( 14-C , 47-H ) :   0.9266 B( 14-C , 48-H ) :   0.9273
B( 15-C , 16-C ) :   1.0864 B( 15-C , 49-H ) :   0.9344 B( 15-C , 50-H ) :   0.9323
B( 16-C , 17-C ) :   1.0869 B( 16-C , 51-H ) :   0.9357 B( 16-C , 52-H ) :   0.9354
B( 17-C , 18-C ) :   1.1111 B( 17-C , 53-H ) :   0.9389 B( 17-C , 54-H ) :   0.9388
B( 18-C , 55-H ) :   0.9660 B( 18-C , 56-H ) :   0.9660 B( 18-C , 57-H ) :   0.9616

Dispersion correction           -0.090045516
FINAL SINGLE POINT ENERGY     -1050.252748942199

DIPOLE MOMENT
-------------

Method             : SCF
Type of density    : Electron Density
Multiplicity       :   1
Irrep              :   0
Energy             : -1050.1627034262835423 Eh
Relativity type    :
Basis              : AO
                                X                 Y                 Z
Electronic contribution:     -0.576045045      -7.219171850     -12.556565818
Nuclear contribution   :      0.719483995       7.421621266      13.047450927
                        -----------------------------------------
Total Dipole Moment    :      0.143438950       0.202449416       0.490885109
                        -----------------------------------------
Magnitude (a.u.)       :      0.550026080
Magnitude (Debye)      :      1.398055190

Rotational constants in cm-1:             0.008888             0.003992             0.003158
Rotational constants in MHz :           266.443144           119.664777            94.661086

                             ****ORCA TERMINATED NORMALLY****
TOTAL RUN TIME: 0 days 0 hours 3 minutes 36 seconds 944 msec
