                         Program Version 6.0.0  -   RELEASE   -
|  1> ! RI BP86 def2-SVP D3BJ TIGHTSCF Opt
|  2> %pal
|  3> nprocs 6
|  4> end
|  5>
|  6> * xyz 0 1
|  7> C     -0.614584   -4.284179    0.498522
|  8> C     -1.252455   -3.898616   -0.678084
|  9> C     -1.062255   -2.612653   -1.183987
| 10> C     -0.233043   -1.695174   -0.519432
| 11> C      0.405469   -2.098210    0.662635
| 12> C      0.214369   -3.385957    1.167754
| 13> P     -0.041421   -0.042107   -1.213915
| 14> O     -0.058673   -0.084952   -2.733235
| 15> C     -1.375968    0.993503   -0.583282
| 16> C     -2.077273    0.692532    0.593370
| 17> C     -3.092312    1.536456    1.048945
| 18> C     -3.418473    2.687758    0.334828
| 19> C     -2.733482    2.996760   -0.837842
| 20> C     -1.719542    2.154514   -1.294286
| 21> C      1.522572    0.635601   -0.614388
| 22> C      2.702295    0.318602   -1.308138
| 23> C      3.937460    0.807401   -0.878679
| 24> C      4.001043    1.620465    0.249782
| 25> C      2.841857    1.949445    0.949481
| 26> C      1.606210    1.459068    0.518457
| 27> Br     5.670714    2.284372    0.836104
| 28> H     -0.759819   -5.287325    0.891372
| 29> H     -1.894861   -4.599629   -1.205121
| 30> H     -1.558201   -2.319368   -2.108570
| 31> H      1.058493   -1.418045    1.203124
| 32> H      0.715868   -3.690805    2.083140
| 33> H     -1.846036   -0.201196    1.167181
| 34> H     -3.633135    1.292981    1.960318
| 35> H     -4.211446    3.341573    0.689005
| 36> H     -2.991253    3.890497   -1.400568
| 37> H     -1.193151    2.397194   -2.216665
| 38> H      2.652000   -0.311140   -2.196046
| 39> H      4.837172    0.551369   -1.432170
| 40> H      2.888342    2.588448    1.827810
| 41> H      0.713518    1.730818    1.076645
| 42> **                         ****END OF INPUT****
 Total Charge           Charge          ....    0
 Multiplicity           Mult            ....    1
 Number of Electrons    NEL             ....  180
Dispersion correction           -0.089826880
FINAL SINGLE POINT ENERGY     -3684.526814648213
Dispersion correction             ... done (  0.1 sec)
Dispersion correction           -0.089753344
FINAL SINGLE POINT ENERGY     -3684.532204228813
Dispersion correction             ... done (  0.1 sec)
Dispersion correction           -0.089826263
FINAL SINGLE POINT ENERGY     -3684.533355609763
Dispersion correction             ... done (  0.1 sec)
FINAL SINGLE POINT ENERGY     -3684.533623314970
Dispersion correction             ... done (  0.1 sec)
Dispersion correction           -0.089733656
FINAL SINGLE POINT ENERGY     -3684.533681919188
Dispersion correction             ... done (  0.1 sec)
Dispersion correction           -0.089703102
FINAL SINGLE POINT ENERGY     -3684.533691062276
Dispersion correction             ... done (  0.1 sec)
                    ***********************HURRAY********************

CARTESIAN COORDINATES (ANGSTROEM)
---------------------------------
  C     -0.667664   -4.266079    0.536765
  C     -1.143174   -3.952611   -0.748542
  C     -0.931318   -2.673339   -1.284662
  C     -0.245296   -1.700884   -0.529270
  C      0.246680   -2.020868    0.752121
  C      0.030180   -3.302198    1.284513
  P     -0.046708   -0.055186   -1.307780
  O     -0.059482   -0.102522   -2.825774
  C     -1.369627    0.995216   -0.600046
  C     -1.935802    0.783306    0.672985
  C     -2.926355    1.656657    1.151460
  C     -3.358104    2.733531    0.358537
  C     -2.806416    2.934085   -0.918989
  C     -1.815613    2.065906   -1.401529
  C      1.516173    0.621689   -0.630304
  C      2.666213    0.473862   -1.431226
  C      3.908923    0.943604   -0.983331
  C      3.990149    1.569448    0.272859
  C      2.851159    1.742918    1.077498
  C      1.612899    1.269619    0.616918
  Br     5.676568    2.209280    0.891959
  H     -0.833063   -5.271047    0.954443
  H     -1.677405   -4.712450   -1.339344
  H     -1.277849   -2.412780   -2.296725
  H      0.815766   -1.275071    1.328269
  H      0.416921   -3.552378    2.284275
  H     -1.616329   -0.074955    1.284248
  H     -3.370067    1.489588    2.144915
  H     -4.136709    3.414857    0.734521
  H     -3.155468    3.769255   -1.545455
  H     -1.384492    2.193951   -2.406522
  H      2.570490   -0.002228   -2.419532
  H      4.809081    0.831743   -1.604181
  H      2.932596    2.250781    2.048836
  H      0.713147    1.425301    1.232155

 Multiplicity           Mult            ....    1
 Number of Electrons    NEL             ....  180
 Basis Dimension        Dim             ....  386

ORBITAL ENERGIES
----------------

  NO   OCC          E(Eh)            E(eV)
   0   2.0000    -481.082959    -13090.9328
   1   2.0000     -76.420871     -2079.5176
   2   2.0000     -61.811540     -1681.9775
   3   2.0000     -55.741534     -1516.8042
   4   2.0000     -55.738703     -1516.7272
   5   2.0000     -55.738626     -1516.7251
   6   2.0000     -18.722567      -509.4670
   7   2.0000      -9.981394      -271.6075
   8   2.0000      -9.944154      -270.5942
   9   2.0000      -9.942704      -270.5547
  10   2.0000      -9.940894      -270.5055
  11   2.0000      -9.939417      -270.4653
  12   2.0000      -9.937229      -270.4057
  13   2.0000      -9.937008      -270.3997
  14   2.0000      -9.935545      -270.3599
  15   2.0000      -9.934109      -270.3209
  16   2.0000      -9.934000      -270.3179
  17   2.0000      -9.933674      -270.3090
  18   2.0000      -9.933614      -270.3074
  19   2.0000      -9.932466      -270.2761
  20   2.0000      -9.932388      -270.2740
  21   2.0000      -9.932296      -270.2715
  22   2.0000      -9.932134      -270.2671
  23   2.0000      -9.931797      -270.2579
  24   2.0000      -9.931660      -270.2542
  25   2.0000      -8.416056      -229.0125
  26   2.0000      -6.378973      -173.5807
  27   2.0000      -6.298543      -171.3921
  28   2.0000      -6.284655      -171.0141
  29   2.0000      -6.284017      -170.9968
  30   2.0000      -4.600220      -125.1783
  31   2.0000      -4.600141      -125.1762
  32   2.0000      -4.599962      -125.1713
  33   2.0000      -2.500873       -68.0522
  34   2.0000      -2.497450       -67.9591
  35   2.0000      -2.497042       -67.9480
  36   2.0000      -2.486592       -67.6636
  37   2.0000      -2.486582       -67.6633
  38   2.0000      -0.856702       -23.3121
  39   2.0000      -0.801900       -21.8208
  40   2.0000      -0.784425       -21.3453
  41   2.0000      -0.781888       -21.2763
  42   2.0000      -0.744311       -20.2537
  43   2.0000      -0.698141       -18.9974
  44   2.0000      -0.690744       -18.7961
  45   2.0000      -0.681800       -18.5527
  46   2.0000      -0.681227       -18.5371
  47   2.0000      -0.678737       -18.4694
  48   2.0000      -0.666084       -18.1251
  49   2.0000      -0.588019       -16.0008
  50   2.0000      -0.566185       -15.4067
  51   2.0000      -0.555264       -15.1095
  52   2.0000      -0.553805       -15.0698
  53   2.0000      -0.545247       -14.8369
  54   2.0000      -0.543074       -14.7778
  55   2.0000      -0.510632       -13.8950
  56   2.0000      -0.477634       -12.9971
  57   2.0000      -0.476440       -12.9646
  58   2.0000      -0.448898       -12.2151
  59   2.0000      -0.434038       -11.8108
  60   2.0000      -0.420141       -11.4326
  61   2.0000      -0.419280       -11.4092
  62   2.0000      -0.413870       -11.2620
  63   2.0000      -0.410250       -11.1635
  64   2.0000      -0.404592       -11.0095
  65   2.0000      -0.395456       -10.7609
  66   2.0000      -0.387283       -10.5385
  67   2.0000      -0.386875       -10.5274
  68   2.0000      -0.383688       -10.4407
  69   2.0000      -0.382564       -10.4101
  70   2.0000      -0.358574        -9.7573
  71   2.0000      -0.346436        -9.4270
  72   2.0000      -0.344505        -9.3745
  73   2.0000      -0.340906        -9.2765
  74   2.0000      -0.328781        -8.9466
  75   2.0000      -0.320536        -8.7222
  76   2.0000      -0.317811        -8.6481
  77   2.0000      -0.313139        -8.5209
  78   2.0000      -0.311306        -8.4711
  79   2.0000      -0.304600        -8.2886
  80   2.0000      -0.289214        -7.8699
  81   2.0000      -0.260319        -7.0836
  82   2.0000      -0.253624        -6.9015
  83   2.0000      -0.249302        -6.7839
  84   2.0000      -0.246421        -6.7055
  85   2.0000      -0.244079        -6.6417
  86   2.0000      -0.242103        -6.5880
  87   2.0000      -0.229626        -6.2485
  88   2.0000      -0.223055        -6.0696
  89   2.0000      -0.222294        -6.0489
  90   0.0000      -0.075873        -2.0646
  91   0.0000      -0.072541        -1.9740
  92   0.0000      -0.063971        -1.7407
  93   0.0000      -0.061805        -1.6818
  94   0.0000      -0.056005        -1.5240

MULLIKEN ATOMIC CHARGES
-----------------------
   0 C :    0.010073
   1 C :    0.001538
   2 C :    0.012378
   3 C :   -0.128510
   4 C :   -0.007514
   5 C :    0.000096
   6 P :    0.633680
   7 O :   -0.452789
   8 C :   -0.130961
   9 C :   -0.009771
  10 C :    0.000335
  11 C :    0.010284
  12 C :    0.001696
  13 C :    0.013662
  14 C :   -0.115078
  15 C :    0.003361
  16 C :    0.023954
  17 C :   -0.034287
  18 C :    0.024363
  19 C :   -0.015765
  20 Br:   -0.029231
  21 H :    0.011066
  22 H :    0.012668
  23 H :    0.023328
  24 H :    0.004584
  25 H :    0.007412
  26 H :    0.006768
  27 H :    0.007097
  28 H :    0.011010
  29 H :    0.012821
  30 H :    0.023238
  31 H :    0.029312
  32 H :    0.015480
  33 H :    0.010190
  34 H :    0.013512
Sum of atomic charges:   -0.0000000

LOEWDIN ATOMIC CHARGES
----------------------
   0 C :   -0.019797
   1 C :   -0.024878
   2 C :   -0.014075
   3 C :   -0.183689
   4 C :   -0.035932
   5 C :   -0.028848
   6 P :    0.887477
   7 O :   -0.487255
   8 C :   -0.183892
   9 C :   -0.036189
  10 C :   -0.028971
  11 C :   -0.019859
  12 C :   -0.024742
  13 C :   -0.014118
  14 C :   -0.185100
  15 C :   -0.006900
  16 C :   -0.037273
  17 C :   -0.110156
  18 C :   -0.041263
  19 C :   -0.028085
  20 Br:    0.104541
  21 H :    0.035664
  22 H :    0.036685
  23 H :    0.039334
  24 H :    0.031921
  25 H :    0.035309
  26 H :    0.032744
  27 H :    0.035161
  28 H :    0.035645
  29 H :    0.036756
  30 H :    0.039210
  31 H :    0.043000
  32 H :    0.041403
  33 H :    0.039842
  34 H :    0.036329

  Mayer bond orders larger than 0.100000
B(  0-C ,  1-C ) :   1.3784 B(  0-C ,  5-C ) :   1.3809 B(  0-C , 21-H ) :   0.9761
B(  1-C ,  2-C ) :   1.3757 B(  1-C , 22-H ) :   0.9778 B(  2-C ,  3-C ) :   1.3799
B(  2-C , 23-H ) :   0.9722 B(  3-C ,  4-C ) :   1.3613 B(  3-C ,  6-P ) :   0.8795
B(  4-C ,  5-C ) :   1.3912 B(  4-C , 24-H ) :   0.9653 B(  5-C , 25-H ) :   0.9754
B(  6-P ,  7-O ) :   1.8813 B(  6-P ,  8-C ) :   0.8803 B(  6-P , 14-C ) :   0.8756
B(  8-C ,  9-C ) :   1.3645 B(  8-C , 13-C ) :   1.3768 B(  9-C , 10-C ) :   1.3889
B(  9-C , 26-H ) :   0.9653 B( 10-C , 11-C ) :   1.3817 B( 10-C , 27-H ) :   0.9754
B( 11-C , 12-C ) :   1.3773 B( 11-C , 28-H ) :   0.9760 B( 12-C , 13-C ) :   1.3778
B( 12-C , 29-H ) :   0.9778 B( 13-C , 30-H ) :   0.9724 B( 14-C , 15-C ) :   1.3700
B( 14-C , 19-C ) :   1.3579 B( 15-C , 16-C ) :   1.3782 B( 15-C , 31-H ) :   0.9695
B( 16-C , 17-C ) :   1.3759 B( 16-C , 32-H ) :   0.9772 B( 17-C , 18-C ) :   1.3783
B( 17-C , 20-Br) :   0.9974 B( 18-C , 19-C ) :   1.3916 B( 18-C , 33-H ) :   0.9746
B( 19-C , 34-H ) :   0.9621

Dispersion correction           -0.089693228
FINAL SINGLE POINT ENERGY     -3684.533692917392

DIPOLE MOMENT
-------------

Method             : SCF
Type of density    : Electron Density
Multiplicity       :   1
Irrep              :   0
Energy             : -3684.4439996898463505 Eh
Relativity type    :
Basis              : AO
                                X                 Y                 Z
Electronic contribution:     60.645500525      23.511383019       7.774031914
Nuclear contribution   :    -61.209594783     -23.683336720      -6.482902473
                        -----------------------------------------
Total Dipole Moment    :     -0.564094258      -0.171953702       1.291129441
                        -----------------------------------------
Magnitude (a.u.)       :      1.419431450
Magnitude (Debye)      :      3.607908020

Rotational constants in cm-1:             0.010408             0.004234             0.003510
Rotational constants in MHz :           312.014904           126.932926           105.220945

                             ****ORCA TERMINATED NORMALLY****
TOTAL RUN TIME: 0 days 0 hours 2 minutes 13 seconds 820 msec
