                         Program Version 6.0.0  -   RELEASE   -
|  1> ! RI BP86 def2-SVP D3BJ TIGHTSCF Opt
|  2> %pal
|  3> nprocs 6
|  4> end
|  5>
|  6> * xyz 0 1
|  7> C     -2.022785   -3.131530    0.450272
|  8> C     -2.577902   -2.139038    1.220651
|  9> O     -2.151621   -0.920613    0.803259
| 10> C     -1.292239   -1.123078   -0.238889
| 11> C     -1.200504   -2.476163   -0.498883
| 12> P     -0.461086    0.207899   -1.182809
| 13> C      1.304306   -0.271761   -1.101444
| 14> C      2.378981    0.555500   -1.361374
| 15> C      3.546824   -0.231993   -1.211236
| 16> C      3.113879   -1.493994   -0.884748
| 17> O      1.758896   -1.530477   -0.828340
| 18> C     -0.551128    1.637896   -0.042501
| 19> C     -1.704095    2.157662    0.511900
| 20> C     -1.314272    3.268942    1.299072
| 21> C      0.049028    3.369255    1.164798
| 22> O      0.517618    2.394774    0.345468
| 23> H     -2.188672   -4.193883    0.557983
| 24> H     -3.260715   -2.133182    2.058589
| 25> H     -0.603195   -2.939074   -1.272796
| 26> H      2.330000    1.605274   -1.617467
| 27> H      4.574207    0.082441   -1.326692
| 28> H      3.615480   -2.427945   -0.673706
| 29> H     -2.706924    1.775733    0.375987
| 30> H     -1.948595    3.914433    1.889572
| 31> H      0.794513    4.042924    1.563334
| 32> **                         ****END OF INPUT****
 Total Charge           Charge          ....    0
 Multiplicity           Mult            ....    1
 Number of Electrons    NEL             ....  120
Dispersion correction           -0.050794567
FINAL SINGLE POINT ENERGY     -1029.118095425738
Dispersion correction             ... done (  0.1 sec)
Dispersion correction           -0.050970993
FINAL SINGLE POINT ENERGY     -1029.123074465984
Dispersion correction             ... done (  0.1 sec)
Dispersion correction           -0.050977466
FINAL SINGLE POINT ENERGY     -1029.124932920702
Dispersion correction             ... done (  0.1 sec)
FINAL SINGLE POINT ENERGY     -1029.126703214787
FINAL SINGLE POINT ENERGY     -1029.129210483396
FINAL SINGLE POINT ENERGY     -1029.131607108576
FINAL SINGLE POINT ENERGY     -1029.133017615455
FINAL SINGLE POINT ENERGY     -1029.134030030855
FINAL SINGLE POINT ENERGY     -1029.134998463816
FINAL SINGLE POINT ENERGY     -1029.135150431096
FINAL SINGLE POINT ENERGY     -1029.135238586207
FINAL SINGLE POINT ENERGY     -1029.135271306237
FINAL SINGLE POINT ENERGY     -1029.135281936981
FINAL SINGLE POINT ENERGY     -1029.135286735810
Dispersion correction             ... done (  0.1 sec)
Dispersion correction           -0.049808694
FINAL SINGLE POINT ENERGY     -1029.135287768699
Dispersion correction             ... done (  0.1 sec)
Dispersion correction           -0.049822271
FINAL SINGLE POINT ENERGY     -1029.135288647064
Dispersion correction             ... done (  0.1 sec)
                    ***********************HURRAY********************

CARTESIAN COORDINATES (ANGSTROEM)
---------------------------------
  C     -2.230667   -3.115255    0.315780
  C     -1.415361   -2.678754    1.337333
  O     -0.747773   -1.551492    0.971901
  C     -1.130944   -1.240017   -0.314688
  C     -2.046492   -2.180579   -0.756607
  P     -0.466707    0.209956   -1.195734
  C      1.330216   -0.062983   -1.066947
  C      2.285731   -0.041444   -2.069306
  C      3.547730   -0.314790   -1.444641
  C      3.273503   -0.485591   -0.105094
  O      1.943329   -0.336550    0.136557
  C     -0.732391    1.542051    0.018720
  C     -1.396966    2.746099   -0.144709
  C     -1.322699    3.434177    1.111720
  C     -0.616505    2.602336    1.953241
  O     -0.255201    1.460251    1.308991
  H     -2.882508   -3.995840    0.330586
  H     -1.209912   -3.048836    2.347437
  H     -2.526638   -2.189652   -1.741561
  H      2.092340    0.149667   -3.130821
  H      4.531087   -0.378393   -1.923715
  H      3.895041   -0.710327    0.768215
  H     -1.879977    3.088062   -1.066940
  H     -1.736669    4.417561    1.360995
  H     -0.301567    2.680345    2.999287

 Multiplicity           Mult            ....    1
 Number of Electrons    NEL             ....  120
 Basis Dimension        Dim             ....  273

ORBITAL ENERGIES
----------------

  NO   OCC          E(Eh)            E(eV)
   0   2.0000     -76.360668     -2077.8794
   1   2.0000     -18.844597      -512.7875
   2   2.0000     -18.844593      -512.7875
   3   2.0000     -18.844570      -512.7868
   4   2.0000      -9.965091      -271.1639
   5   2.0000      -9.965083      -271.1637
   6   2.0000      -9.965072      -271.1634
   7   2.0000      -9.959630      -271.0153
   8   2.0000      -9.959618      -271.0150
   9   2.0000      -9.959532      -271.0126
  10   2.0000      -9.920113      -269.9400
  11   2.0000      -9.920110      -269.9399
  12   2.0000      -9.920103      -269.9397
  13   2.0000      -9.917896      -269.8797
  14   2.0000      -9.917892      -269.8796
  15   2.0000      -9.917889      -269.8795
  16   2.0000      -6.328908      -172.2184
  17   2.0000      -4.550272      -123.8192
  18   2.0000      -4.550269      -123.8191
  19   2.0000      -4.546897      -123.7274
  20   2.0000      -1.012828       -27.5604
  21   2.0000      -1.009504       -27.4700
  22   2.0000      -1.009494       -27.4697
  23   2.0000      -0.721114       -19.6225
  24   2.0000      -0.718425       -19.5493
  25   2.0000      -0.718419       -19.5492
  26   2.0000      -0.704067       -19.1586
  27   2.0000      -0.666405       -18.1338
  28   2.0000      -0.666399       -18.1336
  29   2.0000      -0.586531       -15.9603
  30   2.0000      -0.544291       -14.8109
  31   2.0000      -0.538555       -14.6548
  32   2.0000      -0.538550       -14.6547
  33   2.0000      -0.500488       -13.6190
  34   2.0000      -0.500481       -13.6188
  35   2.0000      -0.490828       -13.3561
  36   2.0000      -0.477060       -12.9815
  37   2.0000      -0.477039       -12.9809
  38   2.0000      -0.441700       -12.0193
  39   2.0000      -0.409311       -11.1379
  40   2.0000      -0.409299       -11.1376
  41   2.0000      -0.394342       -10.7306
  42   2.0000      -0.390551       -10.6274
  43   2.0000      -0.390549       -10.6274
  44   2.0000      -0.374406       -10.1881
  45   2.0000      -0.359508        -9.7827
  46   2.0000      -0.359506        -9.7827
  47   2.0000      -0.359307        -9.7772
  48   2.0000      -0.341021        -9.2797
  49   2.0000      -0.340993        -9.2789
  50   2.0000      -0.332621        -9.0511
  51   2.0000      -0.312028        -8.4907
  52   2.0000      -0.311985        -8.4895
  53   2.0000      -0.252637        -6.8746
  54   2.0000      -0.252636        -6.8746
  55   2.0000      -0.249292        -6.7836
  56   2.0000      -0.232065        -6.3148
  57   2.0000      -0.214505        -5.8370
  58   2.0000      -0.214476        -5.8362
  59   2.0000      -0.197848        -5.3837
  60   0.0000      -0.051598        -1.4040
  61   0.0000      -0.051579        -1.4035
  62   0.0000      -0.016706        -0.4546
  63   0.0000       0.015875         0.4320
  64   0.0000       0.015877         0.4320

MULLIKEN ATOMIC CHARGES
-----------------------
   0 C :   -0.041911
   1 C :    0.102608
   2 O :   -0.164856
   3 C :   -0.004919
   4 C :   -0.045882
   5 P :    0.276088
   6 C :   -0.004874
   7 C :   -0.045872
   8 C :   -0.041896
   9 C :    0.102603
  10 O :   -0.164874
  11 C :   -0.004775
  12 C :   -0.045915
  13 C :   -0.041878
  14 C :    0.102564
  15 O :   -0.164876
  16 H :    0.017516
  17 H :    0.032118
  18 H :    0.013256
  19 H :    0.013272
  20 H :    0.017507
  21 H :    0.032112
  22 H :    0.013259
  23 H :    0.017519
  24 H :    0.032104
Sum of atomic charges:   -0.0000000

LOEWDIN ATOMIC CHARGES
----------------------
   0 C :   -0.087093
   1 C :    0.028747
   2 O :    0.019259
   3 C :   -0.146234
   4 C :   -0.073351
   5 P :    0.467563
   6 C :   -0.146213
   7 C :   -0.073363
   8 C :   -0.087095
   9 C :    0.028745
  10 O :    0.019237
  11 C :   -0.146218
  12 C :   -0.073363
  13 C :   -0.087089
  14 C :    0.028737
  15 O :    0.019227
  16 H :    0.036827
  17 H :    0.028676
  18 H :    0.037334
  19 H :    0.037331
  20 H :    0.036825
  21 H :    0.028676
  22 H :    0.037333
  23 H :    0.036826
  24 H :    0.028675

  Mayer bond orders larger than 0.100000
B(  0-C ,  1-C ) :   1.5101 B(  0-C ,  4-C ) :   1.2386 B(  0-C , 16-H ) :   0.9920
B(  1-C ,  2-O ) :   1.1665 B(  1-C ,  3-C ) :   0.1073 B(  1-C , 17-H ) :   0.9904
B(  2-O ,  3-C ) :   1.1091 B(  3-C ,  4-C ) :   1.5407 B(  3-C ,  5-P ) :   0.9348
B(  4-C , 18-H ) :   0.9984 B(  5-P ,  6-C ) :   0.9349 B(  5-P , 11-C ) :   0.9348
B(  6-C ,  7-C ) :   1.5407 B(  6-C ,  9-C ) :   0.1073 B(  6-C , 10-O ) :   1.1091
B(  7-C ,  8-C ) :   1.2386 B(  7-C , 19-H ) :   0.9985 B(  8-C ,  9-C ) :   1.5101
B(  8-C , 20-H ) :   0.9920 B(  9-C , 10-O ) :   1.1665 B(  9-C , 21-H ) :   0.9904
B( 11-C , 12-C ) :   1.5407 B( 11-C , 14-C ) :   0.1073 B( 11-C , 15-O ) :   1.1091
B( 12-C , 13-C ) :   1.2386 B( 12-C , 22-H ) :   0.9985 B( 13-C , 14-C ) :   1.5101
B( 13-C , 23-H ) :   0.9920 B( 14-C , 15-O ) :   1.1665 B( 14-C , 24-H ) :   0.9904

Dispersion correction           -0.049819782
FINAL SINGLE POINT ENERGY     -1029.135288802145

DIPOLE MOMENT
-------------

Method             : SCF
Type of density    : Electron Density
Multiplicity       :   1
Irrep              :   0
Energy             : -1029.0854690201306312 Eh
Relativity type    :
Basis              : AO
                                X                 Y                 Z
Electronic contribution:     -0.477257476       0.209241987      -1.212127030
Nuclear contribution   :      0.573323106      -0.252011244       1.457108082
                        -----------------------------------------
Total Dipole Moment    :      0.096065631      -0.042769257       0.244981053
                        -----------------------------------------
Magnitude (a.u.)       :      0.266596194
Magnitude (Debye)      :      0.677633674

Rotational constants in cm-1:             0.016892             0.016881             0.010775
Rotational constants in MHz :           506.404547           506.085954           323.029793

                             ****ORCA TERMINATED NORMALLY****
TOTAL RUN TIME: 0 days 0 hours 3 minutes 4 seconds 640 msec
