                         Program Version 6.0.0  -   RELEASE   -
|  1> ! RIJCOSX M062X def2-TZVP D3ZERO NormalSCF
|  2> %pal
|  3> nprocs 6
|  4> end
|  5>
|  6> * xyz 0 1
|  7>   C          -3.93523400552807     -2.41317031266310     -0.74495659984252
|  8>   C          -2.55001714927805     -3.04475635942547     -0.94447944870601
|  9>   C          -1.50940541810701     -2.45228678771356      0.02016957128242
| 10>   C          -1.43217936635603     -0.91674892099913     -0.09298510151934
| 11>   C          -2.83056798369862     -0.29232978106216      0.09988843665684
| 12>   C          -3.86590882927518     -0.88439346937551     -0.86886923621596
| 13>   P          -0.25063360285096     -0.20420618434547      1.19397238135564
| 14>   C           0.07082755328769      1.54733273482668      0.54377795428129
| 15>   C          -0.72514734130887      2.57512890584050      1.39740797409600
| 16>   C          -0.88899111891898      3.93667941011824      0.68269982294560
| 17>   C           0.32846687016747      4.24498526273178     -0.19941595446628
| 18>   C           0.46245127653118      3.20389931958905     -1.33840995857852
| 19>   C          -0.14142590004734      1.83200023475601     -0.95365353856378
| 20>   C           1.37007364571653     -1.08197233428127      0.78110765536548
| 21>   C           2.46510699160094     -0.64414442710224      1.77567567298304
| 22>   C           3.75514619172457     -1.46086287904550      1.59543253892970
| 23>   C           4.26322268574568     -1.40302502637620      0.14687682165352
| 24>   C           3.17335977000133     -1.83773113259932     -0.84442190618385
| 25>   C           1.88999150771179     -1.00829333333889     -0.66447451479609
| 26>   H          -4.66272512682144     -2.83223205335173     -1.47230200151422
| 27>   H          -4.31473207535969     -2.67921524509138      0.26782628600574
| 28>   H          -2.60140016297797     -4.14732448269139     -0.81826203749047
| 29>   H          -2.21533733273019     -2.86473761577331     -1.99147327135667
| 30>   H          -1.77302470783793     -2.72567985456610      1.06788891857277
| 31>   H          -0.51681289287053     -2.90662551191392     -0.18021580357884
| 32>   H          -1.07483389922257     -0.66480936469458     -1.11651697828402
| 33>   H          -2.78091109693539      0.80958078144644     -0.02299993535173
| 34>   H          -3.15702666826346     -0.47207343939641      1.14933723831848
| 35>   H          -3.58706530442163     -0.61302136391529     -1.91258787019309
| 36>   H          -4.86342243605633     -0.43165954781918     -0.68411253266464
| 37>   H           1.15438904729093      1.69527718241920      0.75392786394072
| 38>   H          -0.20468399583851      2.70829176394807      2.36938271092182
| 39>   H          -1.72590348704356      2.16526541256817      1.65293820533843
| 40>   H          -1.05372228325769      4.74121432889559      1.42933818374807
| 41>   H          -1.80090893209210      3.92376671169923      0.04576465506280
| 42>   H           0.26636599443953      5.27079317197712     -0.61833824045142
| 43>   H           1.24065494992263      4.23218613979406      0.43711099212895
| 44>   H          -0.03792089771968      3.57592477551331     -2.25807130185933
| 45>   H           1.53450064213918      3.07738313734611     -1.60235455518744
| 46>   H           0.29826583429920      1.03789721461640     -1.58684099443096
| 47>   H          -1.23044164767603      1.82469838480959     -1.17316671003841
| 48>   H           1.14014402699931     -2.14924231986981      1.00812192438860
| 49>   H           2.69577094538441      0.43448035635475      1.61580664985178
| 50>   H           2.08675601706291     -0.72967419319630      2.81630859995010
| 51>   H           4.53780293296925     -1.10144171294524      2.29719667568143
| 52>   H           3.55217124259104     -2.52110052475843      1.86957756020767
| 53>   H           5.17141130727313     -2.03143858465666      0.02785846375950
| 54>   H           4.57282435453758     -0.35912604153882     -0.08923914674987
| 55>   H           3.54154936160831     -1.75456451737687     -1.88943024697763
| 56>   H           2.93636544541776     -2.91367477777489     -0.68061727919260
| 57>   H           2.11148016321900      0.05210772295040     -0.91747879580908
| 58>   H           1.11128690485249     -1.34732785254261     -1.37972479742364
| 59> **                         ****END OF INPUT****

CARTESIAN COORDINATES (ANGSTROEM)
---------------------------------
  C     -3.935234   -2.413170   -0.744957
  C     -2.550017   -3.044756   -0.944479
  C     -1.509405   -2.452287    0.020170
  C     -1.432179   -0.916749   -0.092985
  C     -2.830568   -0.292330    0.099888
  C     -3.865909   -0.884393   -0.868869
  P     -0.250634   -0.204206    1.193972
  C      0.070828    1.547333    0.543778
  C     -0.725147    2.575129    1.397408
  C     -0.888991    3.936679    0.682700
  C      0.328467    4.244985   -0.199416
  C      0.462451    3.203899   -1.338410
  C     -0.141426    1.832000   -0.953654
  C      1.370074   -1.081972    0.781108
  C      2.465107   -0.644144    1.775676
  C      3.755146   -1.460863    1.595433
  C      4.263223   -1.403025    0.146877
  C      3.173360   -1.837731   -0.844422
  C      1.889992   -1.008293   -0.664475
  H     -4.662725   -2.832232   -1.472302
  H     -4.314732   -2.679215    0.267826
  H     -2.601400   -4.147324   -0.818262
  H     -2.215337   -2.864738   -1.991473
  H     -1.773025   -2.725680    1.067889
  H     -0.516813   -2.906626   -0.180216
  H     -1.074834   -0.664809   -1.116517
  H     -2.780911    0.809581   -0.023000
  H     -3.157027   -0.472073    1.149337
  H     -3.587065   -0.613021   -1.912588
  H     -4.863422   -0.431660   -0.684113
  H      1.154389    1.695277    0.753928
  H     -0.204684    2.708292    2.369383
  H     -1.725903    2.165265    1.652938
  H     -1.053722    4.741214    1.429338
  H     -1.800909    3.923767    0.045765
  H      0.266366    5.270793   -0.618338
  H      1.240655    4.232186    0.437111
  H     -0.037921    3.575925   -2.258071
  H      1.534501    3.077383   -1.602355
  H      0.298266    1.037897   -1.586841
  H     -1.230442    1.824698   -1.173167
  H      1.140144   -2.149242    1.008122
  H      2.695771    0.434480    1.615807
  H      2.086756   -0.729674    2.816309
  H      4.537803   -1.101442    2.297197
  H      3.552171   -2.521101    1.869578
  H      5.171411   -2.031439    0.027858
  H      4.572824   -0.359126   -0.089239
  H      3.541549   -1.754565   -1.889430
  H      2.936365   -2.913675   -0.680617
  H      2.111480    0.052108   -0.917479
  H      1.111287   -1.347328   -1.379725

 Total Charge           Charge          ....    0
 Multiplicity           Mult            ....    1
 Number of Electrons    NEL             ....  156
 Basis Dimension        Dim             ....  793

ORBITAL ENERGIES
----------------

  NO   OCC          E(Eh)            E(eV)
   0   2.0000     -78.005395     -2122.6347
   1   2.0000     -10.537676      -286.7447
   2   2.0000     -10.537532      -286.7408
   3   2.0000     -10.537069      -286.7282
   4   2.0000     -10.533988      -286.6444
   5   2.0000     -10.533556      -286.6326
   6   2.0000     -10.532711      -286.6096
   7   2.0000     -10.532450      -286.6025
   8   2.0000     -10.532290      -286.5982
   9   2.0000     -10.532096      -286.5929
  10   2.0000     -10.531757      -286.5837
  11   2.0000     -10.531499      -286.5767
  12   2.0000     -10.531457      -286.5755
  13   2.0000     -10.531096      -286.5657
  14   2.0000     -10.530941      -286.5615
  15   2.0000     -10.530434      -286.5477
  16   2.0000     -10.530304      -286.5441
  17   2.0000     -10.530209      -286.5416
  18   2.0000     -10.529535      -286.5232
  19   2.0000      -6.821743      -185.6291
  20   2.0000      -4.936174      -134.3201
  21   2.0000      -4.935819      -134.3105
  22   2.0000      -4.935731      -134.3081
  23   2.0000      -0.934296       -25.4235
  24   2.0000      -0.925272       -25.1779
  25   2.0000      -0.922988       -25.1158
  26   2.0000      -0.850943       -23.1553
  27   2.0000      -0.832358       -22.6496
  28   2.0000      -0.831646       -22.6303
  29   2.0000      -0.826197       -22.4820
  30   2.0000      -0.824946       -22.4479
  31   2.0000      -0.820702       -22.3324
  32   2.0000      -0.720513       -19.6062
  33   2.0000      -0.696239       -18.9456
  34   2.0000      -0.689836       -18.7714
  35   2.0000      -0.687185       -18.6992
  36   2.0000      -0.680461       -18.5163
  37   2.0000      -0.676518       -18.4090
  38   2.0000      -0.631622       -17.1873
  39   2.0000      -0.626144       -17.0382
  40   2.0000      -0.611316       -16.6347
  41   2.0000      -0.587499       -15.9867
  42   2.0000      -0.553417       -15.0593
  43   2.0000      -0.541837       -14.7441
  44   2.0000      -0.536332       -14.5943
  45   2.0000      -0.525062       -14.2877
  46   2.0000      -0.504536       -13.7291
  47   2.0000      -0.503242       -13.6939
  48   2.0000      -0.500676       -13.6241
  49   2.0000      -0.498619       -13.5681
  50   2.0000      -0.497219       -13.5300
  51   2.0000      -0.492641       -13.4054
  52   2.0000      -0.476864       -12.9761
  53   2.0000      -0.458668       -12.4810
  54   2.0000      -0.445124       -12.1125
  55   2.0000      -0.440674       -11.9913
  56   2.0000      -0.438253       -11.9255
  57   2.0000      -0.436777       -11.8853
  58   2.0000      -0.431865       -11.7516
  59   2.0000      -0.429454       -11.6860
  60   2.0000      -0.420754       -11.4493
  61   2.0000      -0.411643       -11.2014
  62   2.0000      -0.411188       -11.1890
  63   2.0000      -0.405412       -11.0318
  64   2.0000      -0.401151       -10.9159
  65   2.0000      -0.397722       -10.8226
  66   2.0000      -0.395859       -10.7719
  67   2.0000      -0.392482       -10.6800
  68   2.0000      -0.378967       -10.3122
  69   2.0000      -0.373489       -10.1632
  70   2.0000      -0.365353        -9.9418
  71   2.0000      -0.358752        -9.7621
  72   2.0000      -0.358021        -9.7423
  73   2.0000      -0.352727        -9.5982
  74   2.0000      -0.351239        -9.5577
  75   2.0000      -0.317888        -8.6502
  76   2.0000      -0.316969        -8.6252
  77   2.0000      -0.261649        -7.1198
  78   0.0000       0.048882         1.3302
  79   0.0000       0.054821         1.4918
  80   0.0000       0.060497         1.6462
  81   0.0000       0.073715         2.0059
  82   0.0000       0.077185         2.1003

MULLIKEN ATOMIC CHARGES
-----------------------
   0 C :   -0.273740
   1 C :   -0.271789
   2 C :   -0.357051
   3 C :   -0.182633
   4 C :   -0.372570
   5 C :   -0.265504
   6 P :    0.198140
   7 C :   -0.219752
   8 C :   -0.321893
   9 C :   -0.252499
  10 C :   -0.280615
  11 C :   -0.263564
  12 C :   -0.410157
  13 C :   -0.211199
  14 C :   -0.342532
  15 C :   -0.269072
  16 C :   -0.269504
  17 C :   -0.274939
  18 C :   -0.369607
  19 H :    0.141721
  20 H :    0.143418
  21 H :    0.142528
  22 H :    0.141154
  23 H :    0.171440
  24 H :    0.151099
  25 H :    0.169020
  26 H :    0.153002
  27 H :    0.173395
  28 H :    0.141769
  29 H :    0.141735
  30 H :    0.156052
  31 H :    0.154695
  32 H :    0.158974
  33 H :    0.145012
  34 H :    0.142938
  35 H :    0.144266
  36 H :    0.142616
  37 H :    0.141666
  38 H :    0.139450
  39 H :    0.174431
  40 H :    0.170671
  41 H :    0.172908
  42 H :    0.154869
  43 H :    0.159822
  44 H :    0.141148
  45 H :    0.143806
  46 H :    0.142542
  47 H :    0.138729
  48 H :    0.141985
  49 H :    0.145314
  50 H :    0.158028
  51 H :    0.170271
Sum of atomic charges:   -0.0000000

LOEWDIN ATOMIC CHARGES
----------------------
   0 C :   -0.272861
   1 C :   -0.270699
   2 C :   -0.273579
   3 C :   -0.384451
   4 C :   -0.277943
   5 C :   -0.270540
   6 P :    0.647132
   7 C :   -0.380442
   8 C :   -0.277025
   9 C :   -0.270207
  10 C :   -0.271629
  11 C :   -0.265329
  12 C :   -0.276720
  13 C :   -0.393489
  14 C :   -0.276365
  15 C :   -0.271464
  16 C :   -0.273390
  17 C :   -0.269182
  18 C :   -0.274276
  19 H :    0.136648
  20 H :    0.140175
  21 H :    0.137347
  22 H :    0.139477
  23 H :    0.143734
  24 H :    0.137882
  25 H :    0.144149
  26 H :    0.135366
  27 H :    0.143391
  28 H :    0.139254
  29 H :    0.137466
  30 H :    0.151655
  31 H :    0.139481
  32 H :    0.135812
  33 H :    0.136821
  34 H :    0.138031
  35 H :    0.135491
  36 H :    0.138035
  37 H :    0.136813
  38 H :    0.136164
  39 H :    0.135381
  40 H :    0.139764
  41 H :    0.153889
  42 H :    0.137647
  43 H :    0.140983
  44 H :    0.137269
  45 H :    0.139819
  46 H :    0.136951
  47 H :    0.139118
  48 H :    0.137009
  49 H :    0.139602
  50 H :    0.143532
  51 H :    0.138301

  Mayer bond orders larger than 0.100000
B(  0-C ,  1-C ) :   0.9234 B(  0-C ,  5-C ) :   0.9251 B(  0-C , 19-H ) :   0.9828
B(  0-C , 20-H ) :   0.9805 B(  1-C ,  2-C ) :   0.9208 B(  1-C , 21-H ) :   0.9855
B(  1-C , 22-H ) :   0.9807 B(  2-C ,  3-C ) :   0.8765 B(  2-C , 23-H ) :   0.9756
B(  2-C , 24-H ) :   0.9873 B(  3-C ,  4-C ) :   0.8860 B(  3-C ,  6-P ) :   0.9688
B(  3-C , 25-H ) :   0.9450 B(  4-C ,  5-C ) :   0.9202 B(  4-C , 26-H ) :   0.9898
B(  4-C , 27-H ) :   0.9768 B(  5-C , 28-H ) :   0.9809 B(  5-C , 29-H ) :   0.9847
B(  6-P ,  7-C ) :   0.9560 B(  6-P , 13-C ) :   0.9576 B(  7-C ,  8-C ) :   0.8890
B(  7-C , 12-C ) :   0.8389 B(  7-C , 30-H ) :   0.9547 B(  8-C ,  9-C ) :   0.9118
B(  8-C , 31-H ) :   0.9819 B(  8-C , 32-H ) :   0.9807 B(  9-C , 10-C ) :   0.9058
B(  9-C , 33-H ) :   0.9943 B(  9-C , 34-H ) :   0.9811 B( 10-C , 11-C ) :   0.9231
B( 10-C , 35-H ) :   0.9900 B( 10-C , 36-H ) :   0.9783 B( 11-C , 12-C ) :   0.9173
B( 11-C , 37-H ) :   0.9872 B( 11-C , 38-H ) :   0.9843 B( 12-C , 39-H ) :   0.9896
B( 12-C , 40-H ) :   0.9810 B( 13-C , 14-C ) :   0.9114 B( 13-C , 18-C ) :   0.8396
B( 13-C , 41-H ) :   0.9507 B( 14-C , 15-C ) :   0.9182 B( 14-C , 42-H ) :   0.9837
B( 14-C , 43-H ) :   0.9813 B( 15-C , 16-C ) :   0.9186 B( 15-C , 44-H ) :   0.9843
B( 15-C , 45-H ) :   0.9811 B( 16-C , 17-C ) :   0.9221 B( 16-C , 46-H ) :   0.9823
B( 16-C , 47-H ) :   0.9792 B( 17-C , 18-C ) :   0.9302 B( 17-C , 48-H ) :   0.9846
B( 17-C , 49-H ) :   0.9859 B( 18-C , 50-H ) :   0.9695 B( 18-C , 51-H ) :   0.9840

Dispersion correction           -0.003800121
FINAL SINGLE POINT ENERGY     -1047.068996788279

DIPOLE MOMENT
-------------

Method             : SCF
Type of density    : Electron Density
Multiplicity       :   1
Irrep              :   0
Energy             : -1047.0651966675277436 Eh
Relativity type    :
Basis              : AO
                                X                 Y                 Z
Electronic contribution:     -1.320459706      -1.238247229       6.380523656
Nuclear contribution   :      1.476572346       1.241227007      -6.851748087
                        -----------------------------------------
Total Dipole Moment    :      0.156112639       0.002979778      -0.471224431
                        -----------------------------------------
Magnitude (a.u.)       :      0.496419681
Magnitude (Debye)      :      1.261798552

Rotational constants in cm-1:             0.010956             0.009385             0.005963
Rotational constants in MHz :           328.462301           281.359391           178.776904

                             ****ORCA TERMINATED NORMALLY****
TOTAL RUN TIME: 0 days 0 hours 2 minutes 43 seconds 437 msec
