                         Program Version 6.0.0  -   RELEASE   -
|  1> ! RI BP86 def2-SVP D3BJ TIGHTSCF Opt
|  2> %pal
|  3> nprocs 6
|  4> end
|  5>
|  6> * xyz 0 1
|  7> C      4.033136   -1.243024   -0.220952
|  8> C      2.754413   -0.716739   -0.849693
|  9> C      1.523189   -1.124055   -0.047084
| 10> P     -0.042232   -0.521357   -0.773574
| 11> O     -0.082595   -0.980666   -2.217442
| 12> C     -0.038670    1.259727   -0.598543
| 13> C     -0.048971    2.066883   -1.745157
| 14> C     -0.037470    3.457764   -1.637544
| 15> C     -0.016124    4.058112   -0.380835
| 16> C     -0.006826    3.268648    0.767363
| 17> C     -0.017602    1.876679    0.659886
| 18> C     -1.400672   -1.175876    0.191892
| 19> C     -2.634293   -1.387774   -0.442573
| 20> C     -3.726713   -1.888015    0.266350
| 21> C     -3.599402   -2.183428    1.621132
| 22> C     -2.380784   -1.980146    2.265286
| 23> C     -1.286905   -1.479580    1.555345
| 24> H      4.023490   -2.336397   -0.168627
| 25> H      4.161636   -0.851331    0.793145
| 26> H      4.900729   -0.939019   -0.814856
| 27> H      2.668782   -1.095327   -1.874165
| 28> H      2.805862    0.375113   -0.920509
| 29> H      1.462753   -2.217048    0.006364
| 30> H      1.610503   -0.746943    0.977181
| 31> H     -0.066049    1.604065   -2.731113
| 32> H     -0.046568    4.071046   -2.535018
| 33> H     -0.009234    5.141781   -0.296737
| 34> H      0.005962    3.738789    1.747519
| 35> H     -0.013844    1.279717    1.567631
| 36> H     -2.738538   -1.164375   -1.503707
| 37> H     -4.674682   -2.048663   -0.240738
| 38> H     -4.449678   -2.574332    2.173988
| 39> H     -2.282977   -2.213498    3.322676
| 40> H     -0.349628   -1.330730    2.083109
| 41> **                         ****END OF INPUT****
 Total Charge           Charge          ....    0
 Multiplicity           Mult            ....    1
 Number of Electrons    NEL             ....  130
Dispersion correction           -0.072896997
FINAL SINGLE POINT ENERGY      -997.955209397884
Dispersion correction             ... done (  0.1 sec)
Dispersion correction           -0.072681486
FINAL SINGLE POINT ENERGY      -997.962116845783
Dispersion correction             ... done (  0.1 sec)
Dispersion correction           -0.072612528
FINAL SINGLE POINT ENERGY      -997.963591308815
Dispersion correction             ... done (  0.1 sec)
FINAL SINGLE POINT ENERGY      -997.963935827244
FINAL SINGLE POINT ENERGY      -997.964025260341
FINAL SINGLE POINT ENERGY      -997.964060809831
FINAL SINGLE POINT ENERGY      -997.964076683101
FINAL SINGLE POINT ENERGY      -997.964081922019
Dispersion correction             ... done (  0.1 sec)
Dispersion correction           -0.072407945
FINAL SINGLE POINT ENERGY      -997.964083213229
Dispersion correction             ... done (  0.1 sec)
Dispersion correction           -0.072402066
FINAL SINGLE POINT ENERGY      -997.964083782891
Dispersion correction             ... done (  0.1 sec)
                    ***********************HURRAY********************

CARTESIAN COORDINATES (ANGSTROEM)
---------------------------------
  C      4.040570   -1.282957   -0.301912
  C      2.733201   -0.705993   -0.852210
  C      1.501142   -1.148980   -0.050814
  P     -0.049070   -0.520810   -0.818766
  O     -0.201288   -0.859787   -2.293615
  C     -0.017222    1.295301   -0.545428
  C     -0.092815    2.097012   -1.701074
  C     -0.057291    3.496174   -1.587468
  C      0.053681    4.096779   -0.322156
  C      0.127016    3.297971    0.833158
  C      0.091265    1.899369    0.723451
  C     -1.422312   -1.179252    0.200019
  C     -2.552021   -1.636671   -0.507826
  C     -3.657317   -2.148894    0.189180
  C     -3.637148   -2.211854    1.593021
  C     -2.507361   -1.766955    2.301613
  C     -1.400347   -1.252738    1.608177
  H      4.027943   -2.393054   -0.312914
  H      4.215131   -0.963071    0.747092
  H      4.911911   -0.951742   -0.902649
  H      2.586238   -1.010800   -1.909825
  H      2.782254    0.404895   -0.860343
  H      1.409672   -2.256738   -0.031568
  H      1.557456   -0.806124    1.005387
  H     -0.179379    1.593806   -2.676977
  H     -0.116573    4.121675   -2.491594
  H      0.081413    5.193780   -0.233165
  H      0.210447    3.768662    1.824874
  H      0.140133    1.283099    1.634495
  H     -2.532830   -1.588572   -1.607901
  H     -4.538689   -2.505032   -0.366179
  H     -4.503779   -2.615086    2.139263
  H     -2.487215   -1.824856    3.400787
  H     -0.516819   -0.918558    2.173866

 Multiplicity           Mult            ....    1
 Number of Electrons    NEL             ....  130
 Basis Dimension        Dim             ....  327

ORBITAL ENERGIES
----------------

  NO   OCC          E(Eh)            E(eV)
   0   2.0000     -76.411735     -2079.2690
   1   2.0000     -18.715743      -509.2813
   2   2.0000      -9.935773      -270.3661
   3   2.0000      -9.933540      -270.3054
   4   2.0000      -9.930923      -270.2341
   5   2.0000      -9.930651      -270.2267
   6   2.0000      -9.929440      -270.1938
   7   2.0000      -9.929262      -270.1890
   8   2.0000      -9.928511      -270.1685
   9   2.0000      -9.928075      -270.1567
  10   2.0000      -9.927124      -270.1308
  11   2.0000      -9.926693      -270.1190
  12   2.0000      -9.926424      -270.1117
  13   2.0000      -9.925286      -270.0808
  14   2.0000      -9.925105      -270.0758
  15   2.0000      -9.919624      -269.9267
  16   2.0000      -9.911412      -269.7032
  17   2.0000      -6.370555      -173.3516
  18   2.0000      -4.591889      -124.9517
  19   2.0000      -4.591751      -124.9479
  20   2.0000      -4.591324      -124.9363
  21   2.0000      -0.849579       -23.1182
  22   2.0000      -0.779865       -21.2212
  23   2.0000      -0.777391       -21.1539
  24   2.0000      -0.717835       -19.5333
  25   2.0000      -0.688474       -18.7343
  26   2.0000      -0.677916       -18.4470
  27   2.0000      -0.676131       -18.3984
  28   2.0000      -0.675104       -18.3705
  29   2.0000      -0.629602       -17.1323
  30   2.0000      -0.570021       -15.5111
  31   2.0000      -0.552004       -15.0208
  32   2.0000      -0.548311       -14.9203
  33   2.0000      -0.541666       -14.7395
  34   2.0000      -0.528857       -14.3909
  35   2.0000      -0.498146       -13.5553
  36   2.0000      -0.473254       -12.8779
  37   2.0000      -0.454767       -12.3749
  38   2.0000      -0.423518       -11.5245
  39   2.0000      -0.415877       -11.3166
  40   2.0000      -0.412014       -11.2115
  41   2.0000      -0.406988       -11.0747
  42   2.0000      -0.404680       -11.0119
  43   2.0000      -0.389233       -10.5916
  44   2.0000      -0.384257       -10.4562
  45   2.0000      -0.383092       -10.4245
  46   2.0000      -0.380198       -10.3457
  47   2.0000      -0.368304       -10.0220
  48   2.0000      -0.351687        -9.5699
  49   2.0000      -0.343756        -9.3541
  50   2.0000      -0.336823        -9.1654
  51   2.0000      -0.335735        -9.1358
  52   2.0000      -0.318443        -8.6653
  53   2.0000      -0.311101        -8.4655
  54   2.0000      -0.308927        -8.4063
  55   2.0000      -0.303816        -8.2673
  56   2.0000      -0.299766        -8.1571
  57   2.0000      -0.296282        -8.0622
  58   2.0000      -0.290932        -7.9167
  59   2.0000      -0.245780        -6.6880
  60   2.0000      -0.241269        -6.5653
  61   2.0000      -0.238922        -6.5014
  62   2.0000      -0.235263        -6.4018
  63   2.0000      -0.218856        -5.9554
  64   2.0000      -0.216179        -5.8825
  65   0.0000      -0.070850        -1.9279
  66   0.0000      -0.055662        -1.5146
  67   0.0000      -0.051878        -1.4117
  68   0.0000      -0.047898        -1.3034
  69   0.0000       0.015362         0.4180

MULLIKEN ATOMIC CHARGES
-----------------------
   0 C :   -0.036406
   1 C :   -0.055508
   2 C :   -0.154911
   3 P :    0.545821
   4 O :   -0.458049
   5 C :   -0.113585
   6 C :   -0.001860
   7 C :    0.003088
   8 C :    0.007879
   9 C :   -0.001249
  10 C :   -0.004491
  11 C :   -0.088527
  12 C :    0.001392
  13 C :    0.003341
  14 C :    0.008067
  15 C :    0.001360
  16 C :   -0.021241
  17 H :    0.030877
  18 H :    0.024824
  19 H :    0.035883
  20 H :    0.049507
  21 H :    0.037030
  22 H :    0.063409
  23 H :    0.038070
  24 H :    0.024344
  25 H :    0.010131
  26 H :    0.008737
  27 H :    0.004486
  28 H :   -0.011910
  29 H :    0.024163
  30 H :    0.011216
  31 H :    0.009638
  32 H :    0.005102
  33 H :   -0.000626
Sum of atomic charges:   -0.0000000

LOEWDIN ATOMIC CHARGES
----------------------
   0 C :   -0.072526
   1 C :   -0.058483
   2 C :   -0.188240
   3 P :    0.886185
   4 O :   -0.496044
   5 C :   -0.183963
   6 C :   -0.018487
   7 C :   -0.027193
   8 C :   -0.022415
   9 C :   -0.029731
  10 C :   -0.034323
  11 C :   -0.183962
  12 C :   -0.015326
  13 C :   -0.025771
  14 C :   -0.021428
  15 C :   -0.029433
  16 C :   -0.036521
  17 H :    0.028432
  18 H :    0.025960
  19 H :    0.032230
  20 H :    0.035218
  21 H :    0.030925
  22 H :    0.039366
  23 H :    0.027674
  24 H :    0.038374
  25 H :    0.035478
  26 H :    0.034527
  27 H :    0.033868
  28 H :    0.026014
  29 H :    0.038857
  30 H :    0.036049
  31 H :    0.034948
  32 H :    0.034242
  33 H :    0.025499

  Mayer bond orders larger than 0.100000
B(  0-C ,  1-C ) :   1.1115 B(  0-C , 17-H ) :   0.9672 B(  0-C , 18-H ) :   0.9651
B(  0-C , 19-H ) :   0.9623 B(  1-C ,  2-C ) :   1.0619 B(  1-C , 20-H ) :   0.9340
B(  1-C , 21-H ) :   0.9406 B(  2-C ,  3-P ) :   0.9270 B(  2-C , 22-H ) :   0.9265
B(  2-C , 23-H ) :   0.9047 B(  3-P ,  4-O ) :   1.8719 B(  3-P ,  5-C ) :   0.8633
B(  3-P , 11-C ) :   0.8589 B(  5-C ,  6-C ) :   1.3952 B(  5-C , 10-C ) :   1.3459
B(  6-C ,  7-C ) :   1.3617 B(  6-C , 24-H ) :   0.9688 B(  7-C ,  8-C ) :   1.3851
B(  7-C , 25-H ) :   0.9789 B(  8-C ,  9-C ) :   1.3768 B(  8-C , 26-H ) :   0.9756
B(  9-C , 10-C ) :   1.4067 B(  9-C , 27-H ) :   0.9745 B( 10-C , 28-H ) :   0.9701
B( 11-C , 12-C ) :   1.3920 B( 11-C , 16-C ) :   1.3540 B( 12-C , 13-C ) :   1.3676
B( 12-C , 29-H ) :   0.9695 B( 13-C , 14-C ) :   1.3827 B( 13-C , 30-H ) :   0.9786
B( 14-C , 15-C ) :   1.3803 B( 14-C , 31-H ) :   0.9758 B( 15-C , 16-C ) :   1.4036
B( 15-C , 32-H ) :   0.9739 B( 16-C , 33-H ) :   0.9678

Dispersion correction           -0.072400960
FINAL SINGLE POINT ENERGY      -997.964084035522

DIPOLE MOMENT
-------------

Method             : SCF
Type of density    : Electron Density
Multiplicity       :   1
Irrep              :   0
Energy             :  -997.8916830754155853 Eh
Relativity type    :
Basis              : AO
                                X                 Y                 Z
Electronic contribution:    -11.452038329       1.470057089      -3.361431426
Nuclear contribution   :     11.543294108      -1.099833631       4.698124674
                        -----------------------------------------
Total Dipole Moment    :      0.091255779       0.370223458       1.336693248
                        -----------------------------------------
Magnitude (a.u.)       :      1.390015060
Magnitude (Debye)      :      3.533137498

Rotational constants in cm-1:             0.016817             0.010737             0.008422
Rotational constants in MHz :           504.147141           321.885867           252.488900

                             ****ORCA TERMINATED NORMALLY****
TOTAL RUN TIME: 0 days 0 hours 2 minutes 27 seconds 827 msec
