                         Program Version 6.0.0  -   RELEASE   -
|  1> ! RI BP86 def2-SVP D3BJ TIGHTSCF Opt
|  2> %pal
|  3> nprocs 6
|  4> end
|  5>
|  6> * xyz 0 1
|  7> C     -1.355678    3.555979   -0.660235
|  8> C     -1.036735    3.331882    0.657393
|  9> O     -0.476640    2.106056    0.809856
| 10> C     -0.434339    1.522346   -0.427414
| 11> C     -0.967293    2.390604   -1.362164
| 12> P      0.194424   -0.067506   -0.776920
| 13> O      0.556890   -0.193367   -2.242597
| 14> C     -1.020731   -1.239455   -0.335268
| 15> C     -1.296063   -2.401559   -1.031957
| 16> C     -2.339473   -3.055950   -0.335744
| 17> C     -2.639770   -2.256687    0.740866
| 18> O     -1.850152   -1.153956    0.750133
| 19> C      1.592912   -0.330742    0.233062
| 20> C      2.906929   -0.212518   -0.180522
| 21> C      3.715193   -0.507000    0.942705
| 22> C      2.849812   -0.788132    1.972349
| 23> O      1.563509   -0.687043    1.554249
| 24> H     -1.811444    4.449462   -1.063345
| 25> H     -1.138385    3.914443    1.562681
| 26> H     -1.058128    2.196444   -2.423192
| 27> H     -0.797981   -2.727614   -1.936022
| 28> H     -2.814967   -3.993808   -0.586468
| 29> H     -3.352255   -2.327375    1.551190
| 30> H      3.232354    0.053282   -1.178108
| 31> H      4.794812   -0.514155    0.996635
| 32> H      2.983198   -1.063628    3.009446
| 33> **                         ****END OF INPUT****
 Total Charge           Charge          ....    0
 Multiplicity           Mult            ....    1
 Number of Electrons    NEL             ....  128
Dispersion correction           -0.053913168
FINAL SINGLE POINT ENERGY     -1104.314786745678
Dispersion correction             ... done (  0.1 sec)
Dispersion correction           -0.053568339
FINAL SINGLE POINT ENERGY     -1104.321407062098
Dispersion correction             ... done (  0.1 sec)
Dispersion correction           -0.053271943
FINAL SINGLE POINT ENERGY     -1104.323808349543
Dispersion correction             ... done (  0.1 sec)
FINAL SINGLE POINT ENERGY     -1104.324453619894
FINAL SINGLE POINT ENERGY     -1104.324675334186
FINAL SINGLE POINT ENERGY     -1104.324771220304
FINAL SINGLE POINT ENERGY     -1104.324814397944
FINAL SINGLE POINT ENERGY     -1104.324832536063
FINAL SINGLE POINT ENERGY     -1104.324844928869
FINAL SINGLE POINT ENERGY     -1104.324853653744
FINAL SINGLE POINT ENERGY     -1104.324850075996
FINAL SINGLE POINT ENERGY     -1104.324858858570
Dispersion correction             ... done (  0.1 sec)
Dispersion correction           -0.053359195
FINAL SINGLE POINT ENERGY     -1104.324862094191
Dispersion correction             ... done (  0.1 sec)
Dispersion correction           -0.053353099
FINAL SINGLE POINT ENERGY     -1104.324862840232
Dispersion correction             ... done (  0.1 sec)
                    ***********************HURRAY********************

CARTESIAN COORDINATES (ANGSTROEM)
---------------------------------
  C     -1.301777    3.620534   -0.583244
  C     -1.372218    3.102573    0.691832
  O     -0.877527    1.832335    0.721867
  C     -0.480815    1.525414   -0.556778
  C     -0.720547    2.593073   -1.399608
  P      0.239975   -0.083295   -0.961754
  O      0.601065   -0.208687   -2.423749
  C     -0.968655   -1.320818   -0.433135
  C     -1.561493   -2.315599   -1.185907
  C     -2.438519   -3.019174   -0.293825
  C     -2.313799   -2.401798    0.931891
  O     -1.425449   -1.369862    0.861289
  C      1.669261   -0.280894    0.129025
  C      2.984735   -0.520689   -0.217100
  C      3.713395   -0.591720    1.017410
  C      2.789317   -0.390193    2.019682
  O      1.545456   -0.200404    1.494605
  H     -1.626883    4.617660   -0.900480
  H     -1.733128    3.495349    1.648036
  H     -0.498530    2.615186   -2.471751
  H     -1.375538   -2.500727   -2.249127
  H     -3.080655   -3.874978   -0.530148
  H     -2.770293   -2.570387    1.912732
  H      3.360534   -0.629326   -1.239974
  H      4.786803   -0.769595    1.146801
  H      2.855286   -0.353976    3.112018

 Multiplicity           Mult            ....    1
 Number of Electrons    NEL             ....  128
 Basis Dimension        Dim             ....  287

ORBITAL ENERGIES
----------------

  NO   OCC          E(Eh)            E(eV)
   0   2.0000     -76.436093     -2079.9318
   1   2.0000     -18.857828      -513.1476
   2   2.0000     -18.857809      -513.1471
   3   2.0000     -18.857802      -513.1469
   4   2.0000     -18.728853      -509.6380
   5   2.0000      -9.974473      -271.4192
   6   2.0000      -9.974471      -271.4191
   7   2.0000      -9.974462      -271.4189
   8   2.0000      -9.964901      -271.1587
   9   2.0000      -9.964891      -271.1585
  10   2.0000      -9.964863      -271.1577
  11   2.0000      -9.927996      -270.1545
  12   2.0000      -9.927983      -270.1542
  13   2.0000      -9.927977      -270.1540
  14   2.0000      -9.926429      -270.1119
  15   2.0000      -9.926426      -270.1118
  16   2.0000      -9.926425      -270.1118
  17   2.0000      -6.393559      -173.9776
  18   2.0000      -4.614811      -125.5754
  19   2.0000      -4.614807      -125.5753
  20   2.0000      -4.614698      -125.5723
  21   2.0000      -1.024791       -27.8860
  22   2.0000      -1.022174       -27.8148
  23   2.0000      -1.022152       -27.8142
  24   2.0000      -0.863451       -23.4957
  25   2.0000      -0.728693       -19.8287
  26   2.0000      -0.728148       -19.8139
  27   2.0000      -0.728143       -19.8138
  28   2.0000      -0.705835       -19.2068
  29   2.0000      -0.677863       -18.4456
  30   2.0000      -0.677848       -18.4452
  31   2.0000      -0.587358       -15.9828
  32   2.0000      -0.551303       -15.0017
  33   2.0000      -0.548704       -14.9310
  34   2.0000      -0.548696       -14.9308
  35   2.0000      -0.512000       -13.9322
  36   2.0000      -0.511998       -13.9322
  37   2.0000      -0.497850       -13.5472
  38   2.0000      -0.488460       -13.2917
  39   2.0000      -0.488431       -13.2909
  40   2.0000      -0.447955       -12.1895
  41   2.0000      -0.421356       -11.4657
  42   2.0000      -0.421353       -11.4656
  43   2.0000      -0.406877       -11.0717
  44   2.0000      -0.403356       -10.9759
  45   2.0000      -0.403342       -10.9755
  46   2.0000      -0.381308       -10.3759
  47   2.0000      -0.368262       -10.0209
  48   2.0000      -0.368260       -10.0209
  49   2.0000      -0.366828        -9.9819
  50   2.0000      -0.356114        -9.6904
  51   2.0000      -0.356076        -9.6893
  52   2.0000      -0.343071        -9.3354
  53   2.0000      -0.329169        -8.9571
  54   2.0000      -0.329112        -8.9556
  55   2.0000      -0.324074        -8.8185
  56   2.0000      -0.261683        -7.1207
  57   2.0000      -0.261679        -7.1207
  58   2.0000      -0.258872        -7.0443
  59   2.0000      -0.234245        -6.3741
  60   2.0000      -0.234223        -6.3735
  61   2.0000      -0.224579        -6.1111
  62   2.0000      -0.224541        -6.1101
  63   2.0000      -0.207564        -5.6481
  64   0.0000      -0.059938        -1.6310
  65   0.0000      -0.059923        -1.6306
  66   0.0000      -0.026711        -0.7268
  67   0.0000      -0.011280        -0.3069
  68   0.0000       0.007699         0.2095

MULLIKEN ATOMIC CHARGES
-----------------------
   0 C :   -0.037896
   1 C :    0.107277
   2 O :   -0.172141
   3 C :   -0.005142
   4 C :   -0.049117
   5 P :    0.631196
   6 O :   -0.435824
   7 C :   -0.005173
   8 C :   -0.049191
   9 C :   -0.037943
  10 C :    0.107259
  11 O :   -0.172096
  12 C :   -0.005026
  13 C :   -0.049257
  14 C :   -0.037928
  15 C :    0.107254
  16 O :   -0.172117
  17 H :    0.024034
  18 H :    0.036140
  19 H :    0.031772
  20 H :    0.031766
  21 H :    0.024027
  22 H :    0.036172
  23 H :    0.031787
  24 H :    0.024018
  25 H :    0.036150
Sum of atomic charges:   -0.0000000

LOEWDIN ATOMIC CHARGES
----------------------
   0 C :   -0.080231
   1 C :    0.032809
   2 O :    0.017512
   3 C :   -0.154395
   4 C :   -0.055385
   5 P :    0.845113
   6 O :   -0.476284
   7 C :   -0.154391
   8 C :   -0.055381
   9 C :   -0.080241
  10 C :    0.032792
  11 O :    0.017512
  12 C :   -0.154394
  13 C :   -0.055387
  14 C :   -0.080238
  15 C :    0.032780
  16 O :    0.017509
  17 H :    0.039804
  18 H :    0.030735
  19 H :    0.046226
  20 H :    0.046227
  21 H :    0.039801
  22 H :    0.030740
  23 H :    0.046229
  24 H :    0.039800
  25 H :    0.030736

  Mayer bond orders larger than 0.100000
B(  0-C ,  1-C ) :   1.5120 B(  0-C ,  4-C ) :   1.2257 B(  0-C , 17-H ) :   0.9917
B(  1-C ,  2-O ) :   1.1544 B(  1-C ,  3-C ) :   0.1100 B(  1-C , 18-H ) :   0.9912
B(  2-O ,  3-C ) :   1.1176 B(  3-C ,  4-C ) :   1.5379 B(  3-C ,  5-P ) :   0.8543
B(  4-C , 19-H ) :   1.0021 B(  5-P ,  6-O ) :   1.9895 B(  5-P ,  7-C ) :   0.8542
B(  5-P , 12-C ) :   0.8544 B(  7-C ,  8-C ) :   1.5380 B(  7-C , 10-C ) :   0.1100
B(  7-C , 11-O ) :   1.1176 B(  8-C ,  9-C ) :   1.2258 B(  8-C , 20-H ) :   1.0021
B(  9-C , 10-C ) :   1.5119 B(  9-C , 21-H ) :   0.9917 B( 10-C , 11-O ) :   1.1544
B( 10-C , 22-H ) :   0.9912 B( 12-C , 13-C ) :   1.5379 B( 12-C , 15-C ) :   0.1100
B( 12-C , 16-O ) :   1.1176 B( 13-C , 14-C ) :   1.2258 B( 13-C , 23-H ) :   1.0021
B( 14-C , 15-C ) :   1.5119 B( 14-C , 24-H ) :   0.9917 B( 15-C , 16-O ) :   1.1545
B( 15-C , 25-H ) :   0.9912

Dispersion correction           -0.053352646
FINAL SINGLE POINT ENERGY     -1104.324862932172

DIPOLE MOMENT
-------------

Method             : SCF
Type of density    : Electron Density
Multiplicity       :   1
Irrep              :   0
Energy             : -1104.2715102863612628 Eh
Relativity type    :
Basis              : AO
                                X                 Y                 Z
Electronic contribution:      0.161299269      -0.056694730      -0.666106483
Nuclear contribution   :     -0.442235313       0.154366183       1.805670799
                        -----------------------------------------
Total Dipole Moment    :     -0.280936044       0.097671454       1.139564316
                        -----------------------------------------
Magnitude (a.u.)       :      1.177740041
Magnitude (Debye)      :      2.993577280

Rotational constants in cm-1:             0.015038             0.015033             0.010342
Rotational constants in MHz :           450.821835           450.688508           310.049212

                             ****ORCA TERMINATED NORMALLY****
TOTAL RUN TIME: 0 days 0 hours 2 minutes 43 seconds 465 msec
