                         Program Version 6.0.0  -   RELEASE   -
|  1> ! RI BP86 def2-SVP D3BJ TIGHTSCF Opt
|  2> %pal
|  3> nprocs 6
|  4> end
|  5>
|  6> * xyz 0 1
|  7> C     -2.186183    1.319927    0.391175
|  8> P     -1.331376    0.207040   -0.732834
|  9> O     -1.566801    0.643526   -2.157781
| 10> C     -2.147455   -1.367760   -0.438510
| 11> C      0.362500    0.077802   -0.235111
| 12> C      0.718169   -0.317317    1.061438
| 13> C      2.061167   -0.412135    1.431283
| 14> C      3.062057   -0.113039    0.509110
| 15> C      2.721694    0.280893   -0.782882
| 16> C      1.379495    0.375429   -1.151772
| 17> H     -3.243798    1.389028    0.121315
| 18> H     -2.118436    0.964737    1.423043
| 19> H     -1.748532    2.320583    0.337175
| 20> H     -1.684085   -2.152003   -1.043503
| 21> H     -2.080699   -1.654249    0.614566
| 22> H     -3.205043   -1.300549   -0.708953
| 23> H     -0.048019   -0.554823    1.795051
| 24> H      2.328343   -0.719459    2.439298
| 25> H      4.107712   -0.186716    0.796591
| 26> H      3.499855    0.515002   -1.504931
| 27> H      1.119434    0.684083   -2.163766
| 28> **                         ****END OF INPUT****
 Total Charge           Charge          ....    0
 Multiplicity           Mult            ....    1
 Number of Electrons    NEL             ....   82
Dispersion correction           -0.039822736
FINAL SINGLE POINT ENERGY      -727.758849719689
Dispersion correction             ... done (  0.1 sec)
Dispersion correction           -0.039614192
FINAL SINGLE POINT ENERGY      -727.765481598762
Dispersion correction             ... done (  0.1 sec)
Dispersion correction           -0.039484392
FINAL SINGLE POINT ENERGY      -727.767380866876
Dispersion correction             ... done (  0.1 sec)
FINAL SINGLE POINT ENERGY      -727.767673111702
FINAL SINGLE POINT ENERGY      -727.767735852966
FINAL SINGLE POINT ENERGY      -727.767757152738
Dispersion correction             ... done (  0.1 sec)
Dispersion correction           -0.039465552
FINAL SINGLE POINT ENERGY      -727.767763913188
Dispersion correction             ... done (  0.1 sec)
Dispersion correction           -0.039470185
FINAL SINGLE POINT ENERGY      -727.767765634869
Dispersion correction             ... done (  0.1 sec)
                    ***********************HURRAY********************

CARTESIAN COORDINATES (ANGSTROEM)
---------------------------------
  C     -2.188377    1.364449    0.411267
  P     -1.387826    0.222548   -0.784304
  O     -1.475810    0.669071   -2.230282
  C     -2.146831   -1.416182   -0.449054
  C      0.348897    0.069437   -0.206222
  C      0.710378   -0.326461    1.097991
  C      2.065104   -0.417684    1.454256
  C      3.062230   -0.113953    0.510096
  C      2.704391    0.281232   -0.789975
  C      1.350050    0.373342   -1.149424
  H     -3.263351    1.450019    0.156257
  H     -2.081126    1.019171    1.458673
  H     -1.716499    2.360168    0.301593
  H     -1.652539   -2.161781   -1.101678
  H     -2.034642   -1.721474    0.610107
  H     -3.222429   -1.370794   -0.711559
  H     -0.062834   -0.566800    1.845902
  H      2.345839   -0.726953    2.472925
  H      4.124131   -0.186231    0.791596
  H      3.485607    0.519078   -1.528422
  H      1.035635    0.679797   -2.159741

 Multiplicity           Mult            ....    1
 Number of Electrons    NEL             ....   82
 Basis Dimension        Dim             ....  199

ORBITAL ENERGIES
----------------

  NO   OCC          E(Eh)            E(eV)
   0   2.0000     -76.411159     -2079.2534
   1   2.0000     -18.710513      -509.1390
   2   2.0000      -9.935884      -270.3691
   3   2.0000      -9.931190      -270.2414
   4   2.0000      -9.930860      -270.2324
   5   2.0000      -9.928188      -270.1597
   6   2.0000      -9.926869      -270.1238
   7   2.0000      -9.926724      -270.1199
   8   2.0000      -9.923992      -270.0455
   9   2.0000      -9.923960      -270.0447
  10   2.0000      -6.370557      -173.3517
  11   2.0000      -4.591989      -124.9544
  12   2.0000      -4.591578      -124.9432
  13   2.0000      -4.591361      -124.9373
  14   2.0000      -0.845888       -23.0178
  15   2.0000      -0.779222       -21.2037
  16   2.0000      -0.693254       -18.8644
  17   2.0000      -0.677644       -18.4396
  18   2.0000      -0.663088       -18.0435
  19   2.0000      -0.634314       -17.2606
  20   2.0000      -0.555036       -15.1033
  21   2.0000      -0.548696       -14.9308
  22   2.0000      -0.495202       -13.4751
  23   2.0000      -0.458194       -12.4681
  24   2.0000      -0.415533       -11.3072
  25   2.0000      -0.408192       -11.1075
  26   2.0000      -0.399424       -10.8689
  27   2.0000      -0.388439       -10.5700
  28   2.0000      -0.386680       -10.5221
  29   2.0000      -0.381562       -10.3828
  30   2.0000      -0.373046       -10.1511
  31   2.0000      -0.354624        -9.6498
  32   2.0000      -0.342688        -9.3250
  33   2.0000      -0.325631        -8.8609
  34   2.0000      -0.315978        -8.5982
  35   2.0000      -0.305300        -8.3076
  36   2.0000      -0.295204        -8.0329
  37   2.0000      -0.241676        -6.5763
  38   2.0000      -0.240986        -6.5575
  39   2.0000      -0.216044        -5.8789
  40   2.0000      -0.212962        -5.7950
  41   0.0000      -0.063253        -1.7212
  42   0.0000      -0.052293        -1.4230
  43   0.0000       0.018512         0.5037
  44   0.0000       0.042624         1.1598
  45   0.0000       0.046307         1.2601

MULLIKEN ATOMIC CHARGES
-----------------------
   0 C :   -0.175255
   1 P :    0.474845
   2 O :   -0.460224
   3 C :   -0.174746
   4 C :   -0.123100
   5 C :   -0.017932
   6 C :   -0.000681
   7 C :    0.006869
   8 C :    0.002753
   9 C :   -0.003594
  10 H :    0.075771
  11 H :    0.052215
  12 H :    0.083028
  13 H :    0.083008
  14 H :    0.052176
  15 H :    0.075654
  16 H :   -0.002297
  17 H :    0.005973
  18 H :    0.009606
  19 H :    0.011128
  20 H :    0.024803
Sum of atomic charges:   -0.0000000

LOEWDIN ATOMIC CHARGES
----------------------
   0 C :   -0.229238
   1 P :    0.862502
   2 O :   -0.500649
   3 C :   -0.229124
   4 C :   -0.190784
   5 C :   -0.037408
   6 C :   -0.030249
   7 C :   -0.022218
   8 C :   -0.026704
   9 C :   -0.018226
  10 H :    0.043625
  11 H :    0.034900
  12 H :    0.047616
  13 H :    0.047632
  14 H :    0.034919
  15 H :    0.043555
  16 H :    0.026331
  17 H :    0.034027
  18 H :    0.034809
  19 H :    0.035791
  20 H :    0.038893

  Mayer bond orders larger than 0.100000
B(  0-C ,  1-P ) :   0.9484 B(  0-C , 10-H ) :   0.9533 B(  0-C , 11-H ) :   0.9388
B(  0-C , 12-H ) :   0.9527 B(  1-P ,  2-O ) :   1.9083 B(  1-P ,  3-C ) :   0.9484
B(  1-P ,  4-C ) :   0.8547 B(  3-C , 13-H ) :   0.9526 B(  3-C , 14-H ) :   0.9388
B(  3-C , 15-H ) :   0.9534 B(  4-C ,  5-C ) :   1.3460 B(  4-C ,  9-C ) :   1.4027
B(  5-C ,  6-C ) :   1.4072 B(  5-C , 16-H ) :   0.9722 B(  6-C ,  7-C ) :   1.3792
B(  6-C , 17-H ) :   0.9748 B(  7-C ,  8-C ) :   1.3851 B(  7-C , 18-H ) :   0.9758
B(  8-C ,  9-C ) :   1.3643 B(  8-C , 19-H ) :   0.9792 B(  9-C , 20-H ) :   0.9694

Dispersion correction           -0.039472395
FINAL SINGLE POINT ENERGY      -727.767766196029

DIPOLE MOMENT
-------------

Method             : SCF
Type of density    : Electron Density
Multiplicity       :   1
Irrep              :   0
Energy             :  -727.7282938006264885 Eh
Relativity type    :
Basis              : AO
                                X                 Y                 Z
Electronic contribution:      1.904247008       1.313746688      -4.153900155
Nuclear contribution   :     -1.713757998      -1.748658719       5.566309691
                        -----------------------------------------
Total Dipole Moment    :      0.190489011      -0.434912030       1.412409536
                        -----------------------------------------
Magnitude (a.u.)       :      1.490078936
Magnitude (Debye)      :      3.787479660

Rotational constants in cm-1:             0.074199             0.025518             0.022587
Rotational constants in MHz :          2224.436892           765.019547           677.139902

                             ****ORCA TERMINATED NORMALLY****
TOTAL RUN TIME: 0 days 0 hours 0 minutes 55 seconds 362 msec
