                         Program Version 6.0.0  -   RELEASE   -
|  1> ! RIJCOSX M062X def2-TZVP D3ZERO NormalSCF
|  2> %pal
|  3> nprocs 6
|  4> end
|  5>
|  6> * xyz 0 1
|  7>   C          -0.50717269231061      1.40785858360796     -1.67220707218287
|  8>   C          -0.69201926295834      1.83692975570489     -0.21086105810508
|  9>   C           0.36289222302936      2.90117400339097      0.15332954899716
| 10>   C          -2.09082409957580      2.44452943366400      0.02429064897643
| 11>   P          -0.45616106171531      0.41889050845615      1.07587958395934
| 12>   C           1.33238223933874      0.00482467628996      0.81124524052785
| 13>   C           2.25113535243254      0.48386397599057      1.77041909624675
| 14>   C           3.63095234734895      0.26980138040572      1.61631111905948
| 15>   C           4.11086051090903     -0.43984221649065      0.50362033252456
| 16>   C           3.20506856300493     -0.93676508166442     -0.45036697639549
| 17>   C           1.82739085190276     -0.71715001042651     -0.29877225291866
| 18>   C          -1.26335956281055     -1.08903161792081      0.36792622203629
| 19>   C          -2.47173845147092     -1.06176374222634     -0.36494571438098
| 20>   C          -3.10444039917613     -2.25004793390857     -0.76632638448978
| 21>   C          -2.55262760236202     -3.49664995407115     -0.43341738158481
| 22>   C          -1.36383430487238     -3.54202382666659      0.31513430848860
| 23>   C          -0.73129520575734     -2.35613045683789      0.71419616220235
| 24>   H          -0.67251217607940      2.27831877419333     -2.34461066803150
| 25>   H           0.52189886557959      1.04006787406734     -1.85480021948124
| 26>   H          -1.21470670561316      0.61079173885964     -1.97347787219486
| 27>   H           1.39336758371716      2.55085445117309     -0.05212705442074
| 28>   H           0.30467107815286      3.18737961075830      1.22456991347404
| 29>   H           0.18622432992117      3.81710373369063     -0.45050442605242
| 30>   H          -2.23019966800099      2.73315743901412      1.08612276337071
| 31>   H          -2.91391955309965      1.75449439406813     -0.24516316282522
| 32>   H          -2.21069555999692      3.35707804200612     -0.59882479547759
| 33>   H           1.87193167355271      1.03143428406449      2.64809334498286
| 34>   H           4.33320817948740      0.65172909642985      2.37341277771262
| 35>   H           5.19117095763462     -0.61395860626463      0.38251382841067
| 36>   H           3.57544392320399     -1.50053098782414     -1.32078992754302
| 37>   H           1.12567301883820     -1.12454965641486     -1.04168628300590
| 38>   H          -2.93679439335030     -0.10297754538487     -0.63076087749442
| 39>   H          -4.03940176168576     -2.19568628120078     -1.34540350752790
| 40>   H          -3.04799858741167     -4.42742570796439     -0.74908197133108
| 41>   H          -0.92237143755568     -4.51185259556692      0.59290735141916
| 42>   H           0.19780278774894     -2.41389353500177      1.30184536305468
| 43> **                         ****END OF INPUT****

CARTESIAN COORDINATES (ANGSTROEM)
---------------------------------
  C     -0.507173    1.407859   -1.672207
  C     -0.692019    1.836930   -0.210861
  C      0.362892    2.901174    0.153330
  C     -2.090824    2.444529    0.024291
  P     -0.456161    0.418891    1.075880
  C      1.332382    0.004825    0.811245
  C      2.251135    0.483864    1.770419
  C      3.630952    0.269801    1.616311
  C      4.110861   -0.439842    0.503620
  C      3.205069   -0.936765   -0.450367
  C      1.827391   -0.717150   -0.298772
  C     -1.263360   -1.089032    0.367926
  C     -2.471738   -1.061764   -0.364946
  C     -3.104440   -2.250048   -0.766326
  C     -2.552628   -3.496650   -0.433417
  C     -1.363834   -3.542024    0.315134
  C     -0.731295   -2.356130    0.714196
  H     -0.672512    2.278319   -2.344611
  H      0.521899    1.040068   -1.854800
  H     -1.214707    0.610792   -1.973478
  H      1.393368    2.550854   -0.052127
  H      0.304671    3.187380    1.224570
  H      0.186224    3.817104   -0.450504
  H     -2.230200    2.733157    1.086123
  H     -2.913920    1.754494   -0.245163
  H     -2.210696    3.357078   -0.598825
  H      1.871932    1.031434    2.648093
  H      4.333208    0.651729    2.373413
  H      5.191171   -0.613959    0.382514
  H      3.575444   -1.500531   -1.320790
  H      1.125673   -1.124550   -1.041686
  H     -2.936794   -0.102978   -0.630761
  H     -4.039402   -2.195686   -1.345404
  H     -3.047999   -4.427426   -0.749082
  H     -0.922371   -4.511853    0.592907
  H      0.197803   -2.413894    1.301845

 Total Charge           Charge          ....    0
 Multiplicity           Mult            ....    1
 Number of Electrons    NEL             ....  130
 Basis Dimension        Dim             ....  647

ORBITAL ENERGIES
----------------

  NO   OCC          E(Eh)            E(eV)
   0   2.0000     -78.024796     -2123.1626
   1   2.0000     -10.560202      -287.3577
   2   2.0000     -10.555761      -287.2368
   3   2.0000     -10.553990      -287.1887
   4   2.0000     -10.553518      -287.1758
   5   2.0000     -10.552519      -287.1486
   6   2.0000     -10.552094      -287.1371
   7   2.0000     -10.551461      -287.1199
   8   2.0000     -10.551225      -287.1134
   9   2.0000     -10.550322      -287.0889
  10   2.0000     -10.548937      -287.0512
  11   2.0000     -10.548649      -287.0433
  12   2.0000     -10.548009      -287.0259
  13   2.0000     -10.547404      -287.0095
  14   2.0000     -10.533664      -286.6356
  15   2.0000     -10.530500      -286.5495
  16   2.0000     -10.528405      -286.4925
  17   2.0000      -6.840915      -186.1508
  18   2.0000      -4.955406      -134.8435
  19   2.0000      -4.955173      -134.8371
  20   2.0000      -4.954799      -134.8269
  21   2.0000      -0.959371       -26.1058
  22   2.0000      -0.952314       -25.9138
  23   2.0000      -0.910002       -24.7624
  24   2.0000      -0.853475       -23.2242
  25   2.0000      -0.842365       -22.9219
  26   2.0000      -0.839220       -22.8363
  27   2.0000      -0.833919       -22.6921
  28   2.0000      -0.775306       -21.0971
  29   2.0000      -0.772214       -21.0130
  30   2.0000      -0.726276       -19.7630
  31   2.0000      -0.689069       -18.7505
  32   2.0000      -0.683072       -18.5873
  33   2.0000      -0.675786       -18.3891
  34   2.0000      -0.650509       -17.7013
  35   2.0000      -0.609745       -16.5920
  36   2.0000      -0.587870       -15.9968
  37   2.0000      -0.565379       -15.3847
  38   2.0000      -0.532553       -14.4915
  39   2.0000      -0.525610       -14.3026
  40   2.0000      -0.518268       -14.1028
  41   2.0000      -0.514381       -13.9970
  42   2.0000      -0.506556       -13.7841
  43   2.0000      -0.505244       -13.7484
  44   2.0000      -0.496406       -13.5079
  45   2.0000      -0.487646       -13.2695
  46   2.0000      -0.480015       -13.0619
  47   2.0000      -0.468390       -12.7455
  48   2.0000      -0.452653       -12.3173
  49   2.0000      -0.447276       -12.1710
  50   2.0000      -0.438897       -11.9430
  51   2.0000      -0.434541       -11.8245
  52   2.0000      -0.431152       -11.7322
  53   2.0000      -0.424447       -11.5498
  54   2.0000      -0.405699       -11.0396
  55   2.0000      -0.404510       -11.0073
  56   2.0000      -0.393465       -10.7067
  57   2.0000      -0.391308       -10.6480
  58   2.0000      -0.368133       -10.0174
  59   2.0000      -0.350403        -9.5350
  60   2.0000      -0.327194        -8.9034
  61   2.0000      -0.313700        -8.5362
  62   2.0000      -0.309885        -8.4324
  63   2.0000      -0.305015        -8.2999
  64   2.0000      -0.260583        -7.0908
  65   0.0000      -0.001767        -0.0481
  66   0.0000       0.006850         0.1864
  67   0.0000       0.009469         0.2577
  68   0.0000       0.023160         0.6302
  69   0.0000       0.065495         1.7822

MULLIKEN ATOMIC CHARGES
-----------------------
   0 C :   -0.453400
   1 C :   -0.064853
   2 C :   -0.487328
   3 C :   -0.422107
   4 P :    0.155442
   5 C :   -0.106987
   6 C :   -0.131216
   7 C :   -0.148300
   8 C :   -0.136435
   9 C :   -0.143454
  10 C :   -0.225553
  11 C :    0.008158
  12 C :   -0.183003
  13 C :   -0.167171
  14 C :   -0.146247
  15 C :   -0.152735
  16 C :   -0.199956
  17 H :    0.147458
  18 H :    0.166326
  19 H :    0.161541
  20 H :    0.176866
  21 H :    0.164322
  22 H :    0.150557
  23 H :    0.164259
  24 H :    0.146717
  25 H :    0.145026
  26 H :    0.159914
  27 H :    0.145756
  28 H :    0.146248
  29 H :    0.147160
  30 H :    0.217884
  31 H :    0.143278
  32 H :    0.143106
  33 H :    0.143755
  34 H :    0.144855
  35 H :    0.190117
Sum of atomic charges:   -0.0000000

LOEWDIN ATOMIC CHARGES
----------------------
   0 C :   -0.292766
   1 C :   -0.446765
   2 C :   -0.295920
   3 C :   -0.301198
   4 P :    0.704796
   5 C :   -0.281809
   6 C :   -0.146748
   7 C :   -0.144972
   8 C :   -0.139720
   9 C :   -0.143995
  10 C :   -0.142213
  11 C :   -0.277267
  12 C :   -0.152235
  13 C :   -0.146144
  14 C :   -0.146337
  15 C :   -0.145261
  16 C :   -0.140110
  17 H :    0.128592
  18 H :    0.130723
  19 H :    0.127917
  20 H :    0.131741
  21 H :    0.127775
  22 H :    0.128254
  23 H :    0.129036
  24 H :    0.119049
  25 H :    0.127652
  26 H :    0.149269
  27 H :    0.147704
  28 H :    0.147247
  29 H :    0.147935
  30 H :    0.155631
  31 H :    0.143052
  32 H :    0.147252
  33 H :    0.146322
  34 H :    0.147773
  35 H :    0.155740

  Mayer bond orders larger than 0.100000
B(  0-C ,  1-C ) :   0.9526 B(  0-C , 17-H ) :   0.9542 B(  0-C , 18-H ) :   0.9613
B(  0-C , 19-H ) :   0.9640 B(  1-C ,  2-C ) :   0.9422 B(  1-C ,  3-C ) :   0.9531
B(  1-C ,  4-P ) :   0.9228 B(  2-C , 20-H ) :   0.9626 B(  2-C , 21-H ) :   0.9676
B(  2-C , 22-H ) :   0.9584 B(  3-C , 23-H ) :   0.9629 B(  3-C , 24-H ) :   0.9616
B(  3-C , 25-H ) :   0.9584 B(  4-P ,  5-C ) :   0.9630 B(  4-P , 11-C ) :   0.9912
B(  5-C ,  6-C ) :   1.3995 B(  5-C , 10-C ) :   1.2642 B(  6-C ,  7-C ) :   1.4576
B(  6-C , 26-H ) :   0.9304 B(  7-C ,  8-C ) :   1.4472 B(  7-C , 27-H ) :   0.9479
B(  8-C ,  9-C ) :   1.4318 B(  8-C , 28-H ) :   0.9469 B(  9-C , 10-C ) :   1.4812
B(  9-C , 29-H ) :   0.9425 B( 10-C , 30-H ) :   0.9380 B( 11-C , 12-C ) :   1.3203
B( 11-C , 16-C ) :   1.3420 B( 12-C , 13-C ) :   1.4898 B( 12-C , 31-H ) :   0.9322
B( 13-C , 14-C ) :   1.4531 B( 13-C , 32-H ) :   0.9425 B( 14-C , 15-C ) :   1.4310
B( 14-C , 33-H ) :   0.9489 B( 15-C , 16-C ) :   1.4775 B( 15-C , 34-H ) :   0.9449
B( 16-C , 35-H ) :   0.9350

Dispersion correction           -0.002242640
FINAL SINGLE POINT ENERGY      -962.431395885604

DIPOLE MOMENT
-------------

Method             : SCF
Type of density    : Electron Density
Multiplicity       :   1
Irrep              :   0
Energy             :  -962.4291532454084290 Eh
Relativity type    :
Basis              : AO
                                X                 Y                 Z
Electronic contribution:      1.788364612      -9.526775771       7.188916080
Nuclear contribution   :     -1.526704639       9.520449344      -7.636667296
                        -----------------------------------------
Total Dipole Moment    :      0.261659973      -0.006326427      -0.447751216
                        -----------------------------------------
Magnitude (a.u.)       :      0.518639679
Magnitude (Debye)      :      1.318277299

Rotational constants in cm-1:             0.019011             0.011991             0.008555
Rotational constants in MHz :           569.939009           359.467926           256.475652

                             ****ORCA TERMINATED NORMALLY****
TOTAL RUN TIME: 0 days 0 hours 1 minutes 44 seconds 900 msec
