                         Program Version 6.0.0  -   RELEASE   -
|  1> ! RIJCOSX M062X def2-TZVP D3ZERO NormalSCF
|  2> %pal
|  3> nprocs 6
|  4> end
|  5>
|  6> * xyz 0 1
|  7>   C          -3.04463567501440     -2.49423240888022     -0.91818214610700
|  8>   C          -2.21181342737883     -1.48178742512932     -1.41723298101237
|  9>   C          -0.95897543722727     -1.23066137415526     -0.81560575389928
| 10>   C          -0.54166654443036     -2.01804107364023      0.27573664147851
| 11>   C          -1.38245241795823     -3.03685755486496      0.75317365951535
| 12>   C          -2.63628614211052     -3.28367952159491      0.16917482372360
| 13>   Cl         -0.85720100263705     -4.01215243877046      2.10985088907628
| 14>   P           0.05206304196107      0.15445929116599     -1.51759787855439
| 15>   C           1.65658488144384     -0.10978327533122     -0.62781898916580
| 16>   C           2.54844959741288     -1.04066131038972     -1.20267440020836
| 17>   C           3.76910553886153     -1.31596089251199     -0.56807765814157
| 18>   C           4.13286607547957     -0.66251573424109      0.62279667082633
| 19>   C           3.24731269090756      0.27261555010872      1.17941987909241
| 20>   C           2.01448960846447      0.54978017586051      0.56591339458553
| 21>   Cl          4.86325892995573     -2.48411384769606     -1.27803931437151
| 22>   C          -0.63455746611608      1.59148618904968     -0.57004545193867
| 23>   C          -1.51300389285391      1.44855970011162      0.52222076126021
| 24>   C          -1.97917483163071      2.59428425700644      1.18762967578435
| 25>   C          -1.58255232625519      3.88257222403370      0.79112926186456
| 26>   C          -0.70658925082342      4.01625782336437     -0.29854118658137
| 27>   C          -0.24209091244720      2.88362386129414     -0.98360719283794
| 28>   Cl         -3.07229290397005      2.40903225660159      2.54403330342098
| 29>   H          -4.02340038806616     -2.68204375941424     -1.38545111888985
| 30>   H          -2.53431050857201     -0.87569594772660     -2.27844208880283
| 31>   H           0.42790312358876     -1.84188322756005      0.76200925248543
| 32>   H          -3.27455127820777     -4.08668717023747      0.56335888252485
| 33>   H           2.29346132489588     -1.55761423004655     -2.14017883492127
| 34>   H           5.09804899558967     -0.88832055954788      1.09714744015643
| 35>   H           3.52287011600069      0.78849242566847      2.11206795955845
| 36>   H           1.32479180195012      1.27595673867265      1.01957019421827
| 37>   H          -1.83290210200056      0.45420902937660      0.86358138831791
| 38>   H          -1.96283328144585      4.76202331313989      1.32926087004080
| 39>   H          -0.39330453862641      5.02116192119285     -0.62059571487974
| 40>   H           0.43338660126022      2.99817899509103     -1.84598523761830
| 41> **                         ****END OF INPUT****

CARTESIAN COORDINATES (ANGSTROEM)
---------------------------------
  C     -3.044636   -2.494232   -0.918182
  C     -2.211813   -1.481787   -1.417233
  C     -0.958975   -1.230661   -0.815606
  C     -0.541667   -2.018041    0.275737
  C     -1.382452   -3.036858    0.753174
  C     -2.636286   -3.283680    0.169175
  Cl    -0.857201   -4.012152    2.109851
  P      0.052063    0.154459   -1.517598
  C      1.656585   -0.109783   -0.627819
  C      2.548450   -1.040661   -1.202674
  C      3.769106   -1.315961   -0.568078
  C      4.132866   -0.662516    0.622797
  C      3.247313    0.272616    1.179420
  C      2.014490    0.549780    0.565913
  Cl     4.863259   -2.484114   -1.278039
  C     -0.634557    1.591486   -0.570045
  C     -1.513004    1.448560    0.522221
  C     -1.979175    2.594284    1.187630
  C     -1.582552    3.882572    0.791129
  C     -0.706589    4.016258   -0.298541
  C     -0.242091    2.883624   -0.983607
  Cl    -3.072293    2.409032    2.544033
  H     -4.023400   -2.682044   -1.385451
  H     -2.534311   -0.875696   -2.278442
  H      0.427903   -1.841883    0.762009
  H     -3.274551   -4.086687    0.563359
  H      2.293461   -1.557614   -2.140179
  H      5.098049   -0.888321    1.097147
  H      3.522870    0.788492    2.112068
  H      1.324792    1.275957    1.019570
  H     -1.832902    0.454209    0.863581
  H     -1.962833    4.762023    1.329261
  H     -0.393305    5.021162   -0.620596
  H      0.433387    2.998179   -1.845985

 Total Charge           Charge          ....    0
 Multiplicity           Mult            ....    1
 Number of Electrons    NEL             ....  186
 Basis Dimension        Dim             ....  778

ORBITAL ENERGIES
----------------

  NO   OCC          E(Eh)            E(eV)
   0   2.0000    -102.652200     -2793.3084
   1   2.0000    -102.651689     -2793.2945
   2   2.0000    -102.650650     -2793.2662
   3   2.0000     -78.050231     -2123.8548
   4   2.0000     -10.620318      -288.9936
   5   2.0000     -10.619579      -288.9734
   6   2.0000     -10.619011      -288.9580
   7   2.0000     -10.574957      -287.7592
   8   2.0000     -10.574246      -287.7399
   9   2.0000     -10.573993      -287.7330
  10   2.0000     -10.571802      -287.6734
  11   2.0000     -10.571794      -287.6731
  12   2.0000     -10.570796      -287.6460
  13   2.0000     -10.570418      -287.6357
  14   2.0000     -10.570368      -287.6343
  15   2.0000     -10.570150      -287.6284
  16   2.0000     -10.569756      -287.6177
  17   2.0000     -10.568774      -287.5910
  18   2.0000     -10.568254      -287.5768
  19   2.0000     -10.568249      -287.5767
  20   2.0000     -10.567119      -287.5459
  21   2.0000     -10.565215      -287.4941
  22   2.0000      -9.814168      -267.0571
  23   2.0000      -9.813652      -267.0430
  24   2.0000      -9.812621      -267.0150
  25   2.0000      -7.536098      -205.0676
  26   2.0000      -7.535585      -205.0537
  27   2.0000      -7.534550      -205.0255
  28   2.0000      -7.531202      -204.9344
  29   2.0000      -7.531101      -204.9317
  30   2.0000      -7.530682      -204.9203
  31   2.0000      -7.530590      -204.9178
  32   2.0000      -7.529653      -204.8923
  33   2.0000      -7.529561      -204.8898
  34   2.0000      -6.866159      -186.8377
  35   2.0000      -4.980742      -135.5329
  36   2.0000      -4.980330      -135.5217
  37   2.0000      -4.980320      -135.5214
  38   2.0000      -1.001831       -27.2612
  39   2.0000      -0.998986       -27.1838
  40   2.0000      -0.998050       -27.1583
  41   2.0000      -0.948206       -25.8020
  42   2.0000      -0.940085       -25.5810
  43   2.0000      -0.939502       -25.5652
  44   2.0000      -0.881818       -23.9955
  45   2.0000      -0.860218       -23.4077
  46   2.0000      -0.856140       -23.2968
  47   2.0000      -0.837885       -22.8000
  48   2.0000      -0.834882       -22.7183
  49   2.0000      -0.832291       -22.6478
  50   2.0000      -0.754575       -20.5330
  51   2.0000      -0.709552       -19.3079
  52   2.0000      -0.704860       -19.1802
  53   2.0000      -0.697241       -18.9729
  54   2.0000      -0.688398       -18.7323
  55   2.0000      -0.680453       -18.5161
  56   2.0000      -0.638742       -17.3811
  57   2.0000      -0.601896       -16.3784
  58   2.0000      -0.601162       -16.3585
  59   2.0000      -0.585685       -15.9373
  60   2.0000      -0.549988       -14.9659
  61   2.0000      -0.548884       -14.9359
  62   2.0000      -0.548665       -14.9299
  63   2.0000      -0.534548       -14.5458
  64   2.0000      -0.533344       -14.5130
  65   2.0000      -0.523296       -14.2396
  66   2.0000      -0.504569       -13.7300
  67   2.0000      -0.503214       -13.6931
  68   2.0000      -0.502805       -13.6820
  69   2.0000      -0.492723       -13.4077
  70   2.0000      -0.492253       -13.3949
  71   2.0000      -0.475105       -12.9283
  72   2.0000      -0.471867       -12.8402
  73   2.0000      -0.471501       -12.8302
  74   2.0000      -0.452751       -12.3200
  75   2.0000      -0.430690       -11.7197
  76   2.0000      -0.430382       -11.7113
  77   2.0000      -0.429161       -11.6781
  78   2.0000      -0.412262       -11.2182
  79   2.0000      -0.411425       -11.1954
  80   2.0000      -0.408948       -11.1280
  81   2.0000      -0.401715       -10.9312
  82   2.0000      -0.399622       -10.8743
  83   2.0000      -0.385111       -10.4794
  84   2.0000      -0.378771       -10.3069
  85   2.0000      -0.377854       -10.2819
  86   2.0000      -0.349068        -9.4986
  87   2.0000      -0.332485        -9.0474
  88   2.0000      -0.328868        -8.9490
  89   2.0000      -0.315116        -8.5748
  90   2.0000      -0.310140        -8.4393
  91   2.0000      -0.307235        -8.3603
  92   2.0000      -0.283860        -7.7242
  93   0.0000      -0.020170        -0.5489
  94   0.0000      -0.019329        -0.5260
  95   0.0000      -0.017931        -0.4879
  96   0.0000      -0.001797        -0.0489
  97   0.0000       0.004988         0.1357

MULLIKEN ATOMIC CHARGES
-----------------------
   0 C :   -0.132918
   1 C :   -0.151681
   2 C :   -0.089348
   3 C :   -0.160192
   4 C :    0.062630
   5 C :   -0.165993
   6 Cl:   -0.076469
   7 P :    0.136775
   8 C :   -0.087708
   9 C :   -0.181286
  10 C :    0.085693
  11 C :   -0.162857
  12 C :   -0.150017
  13 C :   -0.140535
  14 Cl:   -0.079090
  15 C :   -0.089039
  16 C :   -0.155766
  17 C :    0.056417
  18 C :   -0.167306
  19 C :   -0.134423
  20 C :   -0.153612
  21 Cl:   -0.076043
  22 H :    0.153026
  23 H :    0.159915
  24 H :    0.194567
  25 H :    0.162076
  26 H :    0.171426
  27 H :    0.162816
  28 H :    0.153596
  29 H :    0.184210
  30 H :    0.194721
  31 H :    0.162327
  32 H :    0.153136
  33 H :    0.160950
Sum of atomic charges:   -0.0000000

LOEWDIN ATOMIC CHARGES
----------------------
   0 C :   -0.132341
   1 C :   -0.141557
   2 C :   -0.273230
   3 C :   -0.140234
   4 C :   -0.414167
   5 C :   -0.137873
   6 Cl:    0.381719
   7 P :    0.712747
   8 C :   -0.272570
   9 C :   -0.144435
  10 C :   -0.415484
  11 C :   -0.138294
  12 C :   -0.131329
  13 C :   -0.137164
  14 Cl:    0.381731
  15 C :   -0.272317
  16 C :   -0.139869
  17 C :   -0.414799
  18 C :   -0.139496
  19 C :   -0.133601
  20 C :   -0.141977
  21 Cl:    0.380814
  22 H :    0.152366
  23 H :    0.152958
  24 H :    0.162254
  25 H :    0.153571
  26 H :    0.156322
  27 H :    0.153546
  28 H :    0.152524
  29 H :    0.159173
  30 H :    0.162369
  31 H :    0.153371
  32 H :    0.152186
  33 H :    0.153085

  Mayer bond orders larger than 0.100000
B(  0-C ,  1-C ) :   1.4562 B(  0-C ,  5-C ) :   1.4172 B(  0-C , 22-H ) :   0.9443
B(  1-C ,  2-C ) :   1.4048 B(  1-C , 23-H ) :   0.9334 B(  2-C ,  3-C ) :   1.3304
B(  2-C ,  7-P ) :   0.9305 B(  3-C ,  4-C ) :   1.3840 B(  3-C , 24-H ) :   0.9120
B(  4-C ,  5-C ) :   1.4068 B(  4-C ,  6-Cl) :   1.0726 B(  5-C , 25-H ) :   0.9291
B(  7-P ,  8-C ) :   0.9255 B(  7-P , 15-C ) :   0.9252 B(  8-C ,  9-C ) :   1.3936
B(  8-C , 13-C ) :   1.3437 B(  9-C , 10-C ) :   1.4065 B(  9-C , 26-H ) :   0.9190
B( 10-C , 11-C ) :   1.3898 B( 10-C , 14-Cl) :   1.0416 B( 11-C , 12-C ) :   1.4278
B( 11-C , 27-H ) :   0.9322 B( 12-C , 13-C ) :   1.4583 B( 12-C , 28-H ) :   0.9409
B( 13-C , 29-H ) :   0.9250 B( 15-C , 16-C ) :   1.3341 B( 15-C , 20-C ) :   1.4011
B( 16-C , 17-C ) :   1.3838 B( 16-C , 30-H ) :   0.9102 B( 17-C , 18-C ) :   1.4055
B( 17-C , 21-Cl) :   1.0748 B( 18-C , 19-C ) :   1.4157 B( 18-C , 31-H ) :   0.9297
B( 19-C , 20-C ) :   1.4566 B( 19-C , 32-H ) :   0.9445 B( 20-C , 33-H ) :   0.9333

Dispersion correction           -0.002593586
FINAL SINGLE POINT ENERGY     -2415.053616686580

DIPOLE MOMENT
-------------

Method             : SCF
Type of density    : Electron Density
Multiplicity       :   1
Irrep              :   0
Energy             : -2415.0510231001712782 Eh
Relativity type    :
Basis              : AO
                                X                 Y                 Z
Electronic contribution:      2.513510041      -9.956794166       4.468400540
Nuclear contribution   :     -2.735925521      10.759928355      -4.639222930
                        -----------------------------------------
Total Dipole Moment    :     -0.222415480       0.803134189      -0.170822390
                        -----------------------------------------
Magnitude (a.u.)       :      0.850689990
Magnitude (Debye)      :      2.162282116

Rotational constants in cm-1:             0.007543             0.004912             0.003659
Rotational constants in MHz :           226.127664           147.261998           109.696564

                             ****ORCA TERMINATED NORMALLY****
TOTAL RUN TIME: 0 days 0 hours 2 minutes 25 seconds 66 msec
