                         Program Version 6.0.0  -   RELEASE   -
|  1> ! RI BP86 def2-SVP D3BJ TIGHTSCF Opt
|  2> %pal
|  3> nprocs 6
|  4> end
|  5>
|  6> * xyz 0 1
|  7> C     -1.542124   -3.912666    0.707674
|  8> C     -0.223742   -3.812667    0.275043
|  9> C      0.221111   -2.644223   -0.351148
| 10> C     -0.636200   -1.544687   -0.540296
| 11> C     -1.969476   -1.681842   -0.122714
| 12> C     -2.416475   -2.849385    0.504720
| 13> P     -0.038806   -0.054266   -1.415456
| 14> C     -0.958517    1.332816   -0.691762
| 15> C     -1.291523    2.425899   -1.490339
| 16> C     -1.991089    3.490684   -0.926389
| 17> C     -2.338858    3.440498    0.416564
| 18> C     -1.969415    2.322605    1.142697
| 19> N     -1.291519    1.276410    0.621680
| 20> C      1.584577    0.227380   -0.650991
| 21> C      1.811785    0.265684    0.722928
| 22> C      3.106310    0.479750    1.190392
| 23> C      4.139427    0.648527    0.278542
| 24> C      3.832943    0.595083   -1.069746
| 25> N      2.587954    0.388280   -1.552183
| 26> H     -1.890066   -4.820102    1.193321
| 27> H      0.460978   -4.644625    0.416281
| 28> H      1.252830   -2.607754   -0.697597
| 29> H     -2.684107   -0.876036   -0.275148
| 30> H     -3.450573   -2.924514    0.830154
| 31> H     -1.009696    2.459144   -2.538626
| 32> H     -2.257983    4.351568   -1.532637
| 33> H     -2.881912    4.252603    0.886321
| 34> H     -2.215539    2.233697    2.196925
| 35> H      0.996624    0.130363    1.427868
| 36> H      3.301062    0.513773    2.258255
| 37> H      5.157599    0.817447    0.609595
| 38> H      4.604423    0.720557   -1.823931
| 39> **                         ****END OF INPUT****
 Total Charge           Charge          ....    0
 Multiplicity           Mult            ....    1
 Number of Electrons    NEL             ....  138
Dispersion correction           -0.076024449
FINAL SINGLE POINT ENERGY     -1067.847555214753
Dispersion correction             ... done (  0.1 sec)
Dispersion correction           -0.076224296
FINAL SINGLE POINT ENERGY     -1067.854968396821
Dispersion correction             ... done (  0.1 sec)
Dispersion correction           -0.076401320
FINAL SINGLE POINT ENERGY     -1067.856460623504
Dispersion correction             ... done (  0.1 sec)
FINAL SINGLE POINT ENERGY     -1067.856604747150
FINAL SINGLE POINT ENERGY     -1067.856793596434
FINAL SINGLE POINT ENERGY     -1067.856843746229
FINAL SINGLE POINT ENERGY     -1067.856843229075
FINAL SINGLE POINT ENERGY     -1067.856858009039
FINAL SINGLE POINT ENERGY     -1067.856860560204
FINAL SINGLE POINT ENERGY     -1067.856865897353
FINAL SINGLE POINT ENERGY     -1067.858508535590
FINAL SINGLE POINT ENERGY     -1067.858466458424
FINAL SINGLE POINT ENERGY     -1067.859067522473
FINAL SINGLE POINT ENERGY     -1067.859286518620
FINAL SINGLE POINT ENERGY     -1067.859405199041
FINAL SINGLE POINT ENERGY     -1067.859465488938
FINAL SINGLE POINT ENERGY     -1067.859488355583
Dispersion correction             ... done (  0.1 sec)
Dispersion correction           -0.075700553
FINAL SINGLE POINT ENERGY     -1067.859499893055
Dispersion correction             ... done (  0.1 sec)
Dispersion correction           -0.075705090
FINAL SINGLE POINT ENERGY     -1067.859502972383
Dispersion correction             ... done (  0.1 sec)
                    ***********************HURRAY********************

CARTESIAN COORDINATES (ANGSTROEM)
---------------------------------
  C     -1.730443   -3.710202    0.854216
  C     -1.313330   -3.860888   -0.477968
  C     -0.719561   -2.780505   -1.153478
  C     -0.532705   -1.544170   -0.500779
  C     -0.953591   -1.400352    0.840570
  C     -1.550917   -2.478385    1.510316
  P      0.284080   -0.180338   -1.457040
  C     -0.782233    1.277828   -0.972989
  C     -1.554334    1.895956   -1.976809
  C     -2.357173    2.994971   -1.634385
  C     -2.353615    3.441202   -0.305083
  C     -1.550506    2.756607    0.625161
  N     -0.785736    1.701952    0.306614
  C      1.745292    0.201377   -0.377243
  C      2.319461   -0.730307    0.512125
  C      3.467990   -0.353096    1.223416
  C      3.998448    0.931151    1.026273
  C      3.356791    1.779548    0.106171
  N      2.265657    1.427204   -0.588631
  H     -2.198168   -4.554432    1.384280
  H     -1.452723   -4.822517   -0.995811
  H     -0.394481   -2.893152   -2.200285
  H     -0.810234   -0.430401    1.342409
  H     -1.879082   -2.358328    2.554757
  H     -1.511455    1.517733   -3.009486
  H     -2.970024    3.500250   -2.397044
  H     -2.959347    4.303734    0.011203
  H     -1.525884    3.076855    1.682362
  H      1.865040   -1.721947    0.650700
  H      3.939664   -1.053507    1.930508
  H      4.893704    1.270771    1.568478
  H      3.749419    2.795389   -0.082535

 Multiplicity           Mult            ....    1
 Number of Electrons    NEL             ....  138
 Basis Dimension        Dim             ....  335

ORBITAL ENERGIES
----------------

  NO   OCC          E(Eh)            E(eV)
   0   2.0000     -76.339551     -2077.3048
   1   2.0000     -14.014589      -381.3563
   2   2.0000     -14.004016      -381.0687
   3   2.0000      -9.954800      -270.8839
   4   2.0000      -9.954613      -270.8788
   5   2.0000      -9.948577      -270.7145
   6   2.0000      -9.946271      -270.6518
   7   2.0000      -9.940798      -270.5029
   8   2.0000      -9.933446      -270.3028
   9   2.0000      -9.933298      -270.2988
  10   2.0000      -9.932039      -270.2645
  11   2.0000      -9.923976      -270.0451
  12   2.0000      -9.923624      -270.0355
  13   2.0000      -9.923294      -270.0265
  14   2.0000      -9.923256      -270.0255
  15   2.0000      -9.922997      -270.0185
  16   2.0000      -9.921680      -269.9826
  17   2.0000      -9.920682      -269.9555
  18   2.0000      -9.917420      -269.8667
  19   2.0000      -6.309457      -171.6891
  20   2.0000      -4.530905      -123.2922
  21   2.0000      -4.530683      -123.2862
  22   2.0000      -4.527283      -123.1936
  23   2.0000      -0.858321       -23.3561
  24   2.0000      -0.848468       -23.0880
  25   2.0000      -0.771148       -20.9840
  26   2.0000      -0.727287       -19.7905
  27   2.0000      -0.718981       -19.5645
  28   2.0000      -0.701589       -19.0912
  29   2.0000      -0.681350       -18.5405
  30   2.0000      -0.669816       -18.2266
  31   2.0000      -0.667351       -18.1595
  32   2.0000      -0.598178       -16.2773
  33   2.0000      -0.568990       -15.4830
  34   2.0000      -0.561716       -15.2851
  35   2.0000      -0.558100       -15.1867
  36   2.0000      -0.541697       -14.7403
  37   2.0000      -0.538105       -14.6426
  38   2.0000      -0.507021       -13.7967
  39   2.0000      -0.466997       -12.7076
  40   2.0000      -0.463601       -12.6152
  41   2.0000      -0.447164       -12.1679
  42   2.0000      -0.437424       -11.9029
  43   2.0000      -0.431044       -11.7293
  44   2.0000      -0.409279       -11.1370
  45   2.0000      -0.404298       -11.0015
  46   2.0000      -0.400435       -10.8964
  47   2.0000      -0.393275       -10.7016
  48   2.0000      -0.376791       -10.2530
  49   2.0000      -0.375690       -10.2230
  50   2.0000      -0.372332       -10.1317
  51   2.0000      -0.365296        -9.9402
  52   2.0000      -0.358038        -9.7427
  53   2.0000      -0.351755        -9.5717
  54   2.0000      -0.347657        -9.4602
  55   2.0000      -0.336298        -9.1511
  56   2.0000      -0.328317        -8.9340
  57   2.0000      -0.305706        -8.3187
  58   2.0000      -0.303180        -8.2500
  59   2.0000      -0.293378        -7.9832
  60   2.0000      -0.268887        -7.3168
  61   2.0000      -0.260255        -7.0819
  62   2.0000      -0.249073        -6.7776
  63   2.0000      -0.246247        -6.7007
  64   2.0000      -0.234630        -6.3846
  65   2.0000      -0.229917        -6.2564
  66   2.0000      -0.217391        -5.9155
  67   2.0000      -0.206362        -5.6154
  68   2.0000      -0.197069        -5.3625
  69   0.0000      -0.075440        -2.0528
  70   0.0000      -0.064144        -1.7455
  71   0.0000      -0.060838        -1.6555
  72   0.0000      -0.050403        -1.3715
  73   0.0000      -0.048423        -1.3177

MULLIKEN ATOMIC CHARGES
-----------------------
   0 C :    0.004699
   1 C :   -0.004093
   2 C :    0.010186
   3 C :   -0.172663
   4 C :    0.012106
   5 C :    0.003805
   6 P :    0.324983
   7 C :   -0.148581
   8 C :    0.041297
   9 C :    0.036038
  10 C :   -0.020184
  11 C :    0.020873
  12 N :   -0.075313
  13 C :   -0.140264
  14 C :    0.021414
  15 C :    0.036363
  16 C :   -0.024562
  17 C :    0.015086
  18 N :   -0.097449
  19 H :    0.004975
  20 H :    0.004543
  21 H :   -0.000248
  22 H :    0.013366
  23 H :    0.002524
  24 H :    0.011613
  25 H :    0.019258
  26 H :    0.015621
  27 H :    0.022406
  28 H :    0.021373
  29 H :    0.012830
  30 H :    0.009581
  31 H :    0.018415
Sum of atomic charges:   -0.0000000

LOEWDIN ATOMIC CHARGES
----------------------
   0 C :   -0.026255
   1 C :   -0.034633
   2 C :   -0.036258
   3 C :   -0.178745
   4 C :   -0.024231
   5 C :   -0.032713
   6 P :    0.482269
   7 C :   -0.119070
   8 C :   -0.043756
   9 C :   -0.004027
  10 C :   -0.045176
  11 C :    0.014804
  12 N :   -0.072042
  13 C :   -0.124573
  14 C :   -0.051565
  15 C :   -0.005920
  16 C :   -0.054523
  17 C :    0.013191
  18 N :   -0.087115
  19 H :    0.032690
  20 H :    0.033119
  21 H :    0.029523
  22 H :    0.031416
  23 H :    0.032692
  24 H :    0.035822
  25 H :    0.038276
  26 H :    0.037174
  27 H :    0.026548
  28 H :    0.037206
  29 H :    0.036104
  30 H :    0.034704
  31 H :    0.025064

  Mayer bond orders larger than 0.100000
B(  0-C ,  1-C ) :   1.3904 B(  0-C ,  5-C ) :   1.3649 B(  0-C , 19-H ) :   0.9757
B(  1-C ,  2-C ) :   1.3793 B(  1-C , 20-H ) :   0.9762 B(  2-C ,  3-C ) :   1.3825
B(  2-C , 21-H ) :   0.9755 B(  3-C ,  4-C ) :   1.3607 B(  3-C ,  6-P ) :   0.9350
B(  4-C ,  5-C ) :   1.3949 B(  4-C , 22-H ) :   0.9541 B(  5-C , 23-H ) :   0.9762
B(  6-P ,  7-C ) :   0.9193 B(  6-P , 13-C ) :   0.9163 B(  7-C ,  8-C ) :   1.3716
B(  7-C , 12-N ) :   1.4504 B(  8-C ,  9-C ) :   1.4022 B(  8-C , 24-H ) :   0.9602
B(  9-C , 10-C ) :   1.4140 B(  9-C , 25-H ) :   0.9698 B( 10-C , 11-C ) :   1.3632
B( 10-C , 26-H ) :   0.9627 B( 11-C , 12-N ) :   1.5250 B( 11-C , 27-H ) :   0.9630
B( 13-C , 14-C ) :   1.3688 B( 13-C , 18-N ) :   1.4454 B( 14-C , 15-C ) :   1.4170
B( 14-C , 28-H ) :   0.9517 B( 15-C , 16-C ) :   1.4075 B( 15-C , 29-H ) :   0.9684
B( 16-C , 17-C ) :   1.3686 B( 16-C , 30-H ) :   0.9618 B( 17-C , 18-N ) :   1.5419
B( 17-C , 31-H ) :   0.9618

Dispersion correction           -0.075706727
FINAL SINGLE POINT ENERGY     -1067.859503882892

DIPOLE MOMENT
-------------

Method             : SCF
Type of density    : Electron Density
Multiplicity       :   1
Irrep              :   0
Energy             : -1067.7837971555834429 Eh
Relativity type    :
Basis              : AO
                                X                 Y                 Z
Electronic contribution:      1.981643121       1.931735641      -5.471221574
Nuclear contribution   :     -2.369343449      -1.872645807       5.945173821
                        -----------------------------------------
Total Dipole Moment    :     -0.387700328       0.059089834       0.473952247
                        -----------------------------------------
Magnitude (a.u.)       :      0.615169802
Magnitude (Debye)      :      1.563637373

Rotational constants in cm-1:             0.012787             0.011350             0.007294
Rotational constants in MHz :           383.353442           340.255766           218.656665

                             ****ORCA TERMINATED NORMALLY****
TOTAL RUN TIME: 0 days 0 hours 9 minutes 1 seconds 152 msec
