                         Program Version 6.0.0  -   RELEASE   -
|  1> ! RIJCOSX M062X def2-TZVP D3ZERO NormalSCF
|  2> %pal
|  3> nprocs 6
|  4> end
|  5>
|  6> * xyz 0 1
|  7>   C           4.33278669401180     -0.37688729008598     -0.11297659578495
|  8>   C           3.87073109083059     -0.32808331949379     -1.43958274527979
|  9>   C           2.49665667300657     -0.20614517675163     -1.69867511488185
| 10>   C           1.59006399290829     -0.13362306564676     -0.62236496412865
| 11>   C           2.04664814465407     -0.18148064444982      0.71217373010513
| 12>   C           3.42321217410895     -0.30348552442857      0.95743992821271
| 13>   P          -0.16956983356930      0.02270480491883     -1.05629098584043
| 14>   O          -0.46116882819708      0.06064508709373     -2.54967461948568
| 15>   C          -1.04110743137519     -1.37389594982247     -0.21670663995798
| 16>   C          -1.92279913390666     -2.13974543843919     -1.00195271680584
| 17>   C          -2.59944378416421     -3.20110752403515     -0.38170001260759
| 18>   C          -2.36635435004258     -3.44383466657769      0.98117986942873
| 19>   C          -1.46035401893675     -2.61531078691224      1.66938071548828
| 20>   N          -0.80590786563237     -1.59828830739986      1.08743364375822
| 21>   C          -0.78782759627300      1.53514262460194     -0.19265399967070
| 22>   C          -1.51703742723344      2.45761276957265     -0.96576995585438
| 23>   C          -2.00038752784457      3.61031987271399     -0.32796432881869
| 24>   C          -1.73573109740928      3.78466144817298      1.03957055159673
| 25>   C          -0.99303961606220      2.79796851575302      1.71467520055407
| 26>   N          -0.52420324179165      1.69205645928606      1.11604817162127
| 27>   H           5.41105878950631     -0.47260568039148      0.08904349505156
| 28>   H           4.58416464017396     -0.38514551501670     -2.27618274648782
| 29>   H           2.10342836689112     -0.16496598202848     -2.72649139703890
| 30>   H           1.31856056574081     -0.12172725086330      1.53218788239405
| 31>   H           3.79074126117710     -0.34140449456995      1.99464059497478
| 32>   H          -2.04660087840457     -1.88746670809905     -2.06598955049399
| 33>   H          -3.29774856113093     -3.83176344651167     -0.95371546520413
| 34>   H          -2.87475934768494     -4.26523967948479      1.50830823480723
| 35>   H          -1.25233096414056     -2.78355391365471      2.74102016677687
| 36>   H          -1.67765318222141      2.24988347218141     -2.03449639274526
| 37>   H          -2.57435490643406      4.36344231497208     -0.89002160731169
| 38>   H          -2.09491724241568      4.67323446989482      1.58036961207766
| 39>   H          -0.76475455813913      2.90808952550175      2.78974004155101
| 40> **                         ****END OF INPUT****

CARTESIAN COORDINATES (ANGSTROEM)
---------------------------------
  C      4.332787   -0.376887   -0.112977
  C      3.870731   -0.328083   -1.439583
  C      2.496657   -0.206145   -1.698675
  C      1.590064   -0.133623   -0.622365
  C      2.046648   -0.181481    0.712174
  C      3.423212   -0.303486    0.957440
  P     -0.169570    0.022705   -1.056291
  O     -0.461169    0.060645   -2.549675
  C     -1.041107   -1.373896   -0.216707
  C     -1.922799   -2.139745   -1.001953
  C     -2.599444   -3.201108   -0.381700
  C     -2.366354   -3.443835    0.981180
  C     -1.460354   -2.615311    1.669381
  N     -0.805908   -1.598288    1.087434
  C     -0.787828    1.535143   -0.192654
  C     -1.517037    2.457613   -0.965770
  C     -2.000388    3.610320   -0.327964
  C     -1.735731    3.784661    1.039571
  C     -0.993040    2.797969    1.714675
  N     -0.524203    1.692056    1.116048
  H      5.411059   -0.472606    0.089043
  H      4.584165   -0.385146   -2.276183
  H      2.103428   -0.164966   -2.726491
  H      1.318561   -0.121727    1.532188
  H      3.790741   -0.341404    1.994641
  H     -2.046601   -1.887467   -2.065990
  H     -3.297749   -3.831763   -0.953715
  H     -2.874759   -4.265240    1.508308
  H     -1.252331   -2.783554    2.741020
  H     -1.677653    2.249883   -2.034496
  H     -2.574355    4.363442   -0.890022
  H     -2.094917    4.673234    1.580370
  H     -0.764755    2.908090    2.789740

 Total Charge           Charge          ....    0
 Multiplicity           Mult            ....    1
 Number of Electrons    NEL             ....  146
 Basis Dimension        Dim             ....  704

ORBITAL ENERGIES
----------------

  NO   OCC          E(Eh)            E(eV)
   0   2.0000     -78.096764     -2125.1210
   1   2.0000     -19.570531      -532.5412
   2   2.0000     -14.764113      -401.7519
   3   2.0000     -14.764109      -401.7518
   4   2.0000     -10.591081      -288.1980
   5   2.0000     -10.591073      -288.1977
   6   2.0000     -10.590932      -288.1939
   7   2.0000     -10.590899      -288.1930
   8   2.0000     -10.574163      -287.7376
   9   2.0000     -10.574152      -287.7373
  10   2.0000     -10.566749      -287.5359
  11   2.0000     -10.566710      -287.5348
  12   2.0000     -10.563388      -287.4444
  13   2.0000     -10.563385      -287.4443
  14   2.0000     -10.552753      -287.1550
  15   2.0000     -10.551475      -287.1202
  16   2.0000     -10.550644      -287.0976
  17   2.0000     -10.548804      -287.0476
  18   2.0000     -10.547467      -287.0112
  19   2.0000     -10.547105      -287.0013
  20   2.0000      -6.903672      -187.8585
  21   2.0000      -5.020586      -136.6171
  22   2.0000      -5.020557      -136.6163
  23   2.0000      -5.019257      -136.5809
  24   2.0000      -1.071597       -29.1596
  25   2.0000      -1.057569       -28.7779
  26   2.0000      -1.054733       -28.7007
  27   2.0000      -0.954464       -25.9723
  28   2.0000      -0.909737       -24.7552
  29   2.0000      -0.908759       -24.7286
  30   2.0000      -0.874895       -23.8071
  31   2.0000      -0.862192       -23.4614
  32   2.0000      -0.843313       -22.9477
  33   2.0000      -0.838519       -22.8173
  34   2.0000      -0.750803       -20.4304
  35   2.0000      -0.721871       -19.6431
  36   2.0000      -0.719898       -19.5894
  37   2.0000      -0.713058       -19.4033
  38   2.0000      -0.689538       -18.7633
  39   2.0000      -0.684022       -18.6132
  40   2.0000      -0.642867       -17.4933
  41   2.0000      -0.603054       -16.4099
  42   2.0000      -0.593313       -16.1449
  43   2.0000      -0.575885       -15.6706
  44   2.0000      -0.558775       -15.2050
  45   2.0000      -0.557832       -15.1794
  46   2.0000      -0.538147       -14.6437
  47   2.0000      -0.530242       -14.4286
  48   2.0000      -0.516737       -14.0611
  49   2.0000      -0.512213       -13.9380
  50   2.0000      -0.499961       -13.6046
  51   2.0000      -0.497090       -13.5265
  52   2.0000      -0.487262       -13.2591
  53   2.0000      -0.483485       -13.1563
  54   2.0000      -0.481423       -13.1002
  55   2.0000      -0.469396       -12.7729
  56   2.0000      -0.466454       -12.6929
  57   2.0000      -0.458361       -12.4726
  58   2.0000      -0.440605       -11.9895
  59   2.0000      -0.424607       -11.5542
  60   2.0000      -0.419917       -11.4265
  61   2.0000      -0.405265       -11.0278
  62   2.0000      -0.399718       -10.8769
  63   2.0000      -0.360062        -9.7978
  64   2.0000      -0.359710        -9.7882
  65   2.0000      -0.352727        -9.5982
  66   2.0000      -0.351132        -9.5548
  67   2.0000      -0.334674        -9.1069
  68   2.0000      -0.326008        -8.8711
  69   2.0000      -0.322052        -8.7635
  70   2.0000      -0.314598        -8.5606
  71   2.0000      -0.305886        -8.3236
  72   2.0000      -0.304761        -8.2930
  73   0.0000      -0.026359        -0.7173
  74   0.0000      -0.014288        -0.3888
  75   0.0000      -0.004922        -0.1339
  76   0.0000      -0.000767        -0.0209
  77   0.0000       0.020417         0.5556

MULLIKEN ATOMIC CHARGES
-----------------------
   0 C :   -0.136255
   1 C :   -0.137698
   2 C :   -0.168271
   3 C :   -0.064658
   4 C :   -0.157104
   5 C :   -0.141014
   6 P :    0.683270
   7 O :   -0.616812
   8 C :    0.042561
   9 C :   -0.172000
  10 C :   -0.100385
  11 C :   -0.137222
  12 C :   -0.067990
  13 N :   -0.245703
  14 C :    0.037887
  15 C :   -0.170704
  16 C :   -0.101133
  17 C :   -0.136233
  18 C :   -0.068621
  19 N :   -0.244573
  20 H :    0.145597
  21 H :    0.145536
  22 H :    0.189371
  23 H :    0.190185
  24 H :    0.144158
  25 H :    0.191229
  26 H :    0.156325
  27 H :    0.149884
  28 H :    0.146290
  29 H :    0.191627
  30 H :    0.156234
  31 H :    0.149858
  32 H :    0.146365
Sum of atomic charges:   -0.0000000

LOEWDIN ATOMIC CHARGES
----------------------
   0 C :   -0.133283
   1 C :   -0.143045
   2 C :   -0.119485
   3 C :   -0.235222
   4 C :   -0.117683
   5 C :   -0.141228
   6 P :    0.698981
   7 O :   -0.316006
   8 C :   -0.295900
   9 C :   -0.124790
  10 C :   -0.116265
  11 C :   -0.142608
  12 C :   -0.194497
  13 N :    0.139836
  14 C :   -0.295892
  15 C :   -0.124928
  16 C :   -0.116230
  17 C :   -0.142655
  18 C :   -0.194603
  19 N :    0.139671
  20 H :    0.147316
  21 H :    0.147941
  22 H :    0.159524
  23 H :    0.157421
  24 H :    0.147867
  25 H :    0.163055
  26 H :    0.151819
  27 H :    0.150433
  28 H :    0.142587
  29 H :    0.163099
  30 H :    0.151816
  31 H :    0.150388
  32 H :    0.142566

  Mayer bond orders larger than 0.100000
B(  0-C ,  1-C ) :   1.4420 B(  0-C ,  5-C ) :   1.4331 B(  0-C , 20-H ) :   0.9471
B(  1-C ,  2-C ) :   1.4351 B(  1-C , 21-H ) :   0.9505 B(  2-C ,  3-C ) :   1.3964
B(  2-C , 22-H ) :   0.9082 B(  3-C ,  4-C ) :   1.4041 B(  3-C ,  6-P ) :   0.9374
B(  4-C ,  5-C ) :   1.4438 B(  4-C , 23-H ) :   0.9028 B(  5-C , 24-H ) :   0.9485
B(  6-P ,  7-O ) :   1.9280 B(  6-P ,  8-C ) :   0.9000 B(  6-P , 14-C ) :   0.8985
B(  8-C ,  9-C ) :   1.4222 B(  8-C , 13-N ) :   1.3218 B(  9-C , 10-C ) :   1.4187
B(  9-C , 25-H ) :   0.9099 B( 10-C , 11-C ) :   1.4378 B( 10-C , 26-H ) :   0.9489
B( 11-C , 12-C ) :   1.3808 B( 11-C , 27-H ) :   0.9494 B( 12-C , 13-N ) :   1.5081
B( 12-C , 28-H ) :   0.9709 B( 14-C , 15-C ) :   1.4230 B( 14-C , 19-N ) :   1.3224
B( 15-C , 16-C ) :   1.4185 B( 15-C , 29-H ) :   0.9095 B( 16-C , 17-C ) :   1.4365
B( 16-C , 30-H ) :   0.9493 B( 17-C , 18-C ) :   1.3807 B( 17-C , 31-H ) :   0.9494
B( 18-C , 19-N ) :   1.5076 B( 18-C , 32-H ) :   0.9708

Dispersion correction           -0.002090432
FINAL SINGLE POINT ENERGY     -1143.594298993499

DIPOLE MOMENT
-------------

Method             : SCF
Type of density    : Electron Density
Multiplicity       :   1
Irrep              :   0
Energy             : -1143.5922085612075989 Eh
Relativity type    :
Basis              : AO
                                X                 Y                 Z
Electronic contribution:     -1.953173469       0.183030919      -2.701639352
Nuclear contribution   :      1.313091047      -0.135518973       3.742865449
                        -----------------------------------------
Total Dipole Moment    :     -0.640082423       0.047511946       1.041226098
                        -----------------------------------------
Magnitude (a.u.)       :      1.223157668
Magnitude (Debye)      :      3.109019713

Rotational constants in cm-1:             0.011015             0.010467             0.007205
Rotational constants in MHz :           330.227546           313.780581           216.015426

                             ****ORCA TERMINATED NORMALLY****
TOTAL RUN TIME: 0 days 0 hours 2 minutes 9 seconds 358 msec
