                         Program Version 6.0.0  -   RELEASE   -
|  1> ! RIJCOSX M062X def2-TZVP D3ZERO NormalSCF
|  2> %pal
|  3> nprocs 6
|  4> end
|  5>
|  6> * xyz 0 1
|  7>   C          -3.60402778811050     -2.77813206125702      1.20133693905819
|  8>   C          -3.82936355026380     -2.52239868910258     -0.16249074006939
|  9>   C          -2.88930505791303     -1.79284706819063     -0.90591675520633
| 10>   C          -1.72078325038811     -1.31180089224789     -0.28049276215779
| 11>   C          -1.48616576093031     -1.58361445071549      1.08326493476036
| 12>   C          -2.43215478903679     -2.31251434696913      1.82195234646684
| 13>   P          -0.58317268239499     -0.34418440551474     -1.33806221683755
| 14>   O          -0.69185077642432     -0.67383156133230     -2.81643810870709
| 15>   C          -0.89277473695652      1.41567281069403     -0.95008270236165
| 16>   C          -0.64653673299948      2.33866459712146     -1.98702766371292
| 17>   C          -0.82411405480039      3.71091153752324     -1.75514233023004
| 18>   C          -1.24919777796993      4.16328088661196     -0.49360606544484
| 19>   C          -1.50963726181777      3.24238599356069      0.53549053678413
| 20>   C          -1.33858630949192      1.86724492554925      0.30854479697284
| 21>   C           1.09295015758434     -0.68806518951357     -0.66731783045853
| 22>   C           1.58365543400283     -0.08668516969381      0.50349983994705
| 23>   C           2.85287025104029     -0.46087982580813      0.96889060503771
| 24>   C           3.64725687036844     -1.40189686544429      0.29632596641215
| 25>   C           3.15412139809622     -1.97561051061425     -0.88740065071498
| 26>   C           1.88405187010071     -1.62121465687233     -1.36903017919735
| 27>   S           3.45691281832336      0.28358354222903      2.48654353396377
| 28>   O           2.30420506235276      0.57020649214413      3.34851327311196
| 29>   O           4.64383813469918     -0.46500159845502      2.94376983997094
| 30>   O           3.97600308082209      1.77378715473456      1.95639682606988
| 31>   H          -4.34180950429622     -3.35231415332973      1.78254371841084
| 32>   H          -4.74094227824980     -2.89904494531664     -0.65130582492835
| 33>   H          -3.03640930908020     -1.59672847148044     -1.97931584266475
| 34>   H          -0.56008380545234     -1.24336830947326      1.57160580978425
| 35>   H          -2.24773904120921     -2.52478141466007      2.88606758293249
| 36>   H          -0.32974856400527      1.96064460828216     -2.97141981636315
| 37>   H          -0.63401722135374      4.43249659409659     -2.56446589822370
| 38>   H          -1.38669545602839      5.24049235232250     -0.31342846392012
| 39>   H          -1.85519782430446      3.59533242099575      1.51898328318025
| 40>   H          -1.56899769430731      1.14596367003455      1.10768749191960
| 41>   H           0.99947621395254      0.66477446156192      1.05535003156456
| 42>   H           4.62836448410911     -1.67765827954249      0.70914804463192
| 43>   H           3.76543389536993     -2.70993959152106     -1.43337464626712
| 44>   H           1.48210764507529     -2.05518836779187     -2.29784037363637
| 45>   H           4.92806191188773      1.67225977738489      1.73835747012227
| 46> **                         ****END OF INPUT****

CARTESIAN COORDINATES (ANGSTROEM)
---------------------------------
  C     -3.604028   -2.778132    1.201337
  C     -3.829364   -2.522399   -0.162491
  C     -2.889305   -1.792847   -0.905917
  C     -1.720783   -1.311801   -0.280493
  C     -1.486166   -1.583614    1.083265
  C     -2.432155   -2.312514    1.821952
  P     -0.583173   -0.344184   -1.338062
  O     -0.691851   -0.673832   -2.816438
  C     -0.892775    1.415673   -0.950083
  C     -0.646537    2.338665   -1.987028
  C     -0.824114    3.710912   -1.755142
  C     -1.249198    4.163281   -0.493606
  C     -1.509637    3.242386    0.535491
  C     -1.338586    1.867245    0.308545
  C      1.092950   -0.688065   -0.667318
  C      1.583655   -0.086685    0.503500
  C      2.852870   -0.460880    0.968891
  C      3.647257   -1.401897    0.296326
  C      3.154121   -1.975611   -0.887401
  C      1.884052   -1.621215   -1.369030
  S      3.456913    0.283584    2.486544
  O      2.304205    0.570206    3.348513
  O      4.643838   -0.465002    2.943770
  O      3.976003    1.773787    1.956397
  H     -4.341810   -3.352314    1.782544
  H     -4.740942   -2.899045   -0.651306
  H     -3.036409   -1.596728   -1.979316
  H     -0.560084   -1.243368    1.571606
  H     -2.247739   -2.524781    2.886068
  H     -0.329749    1.960645   -2.971420
  H     -0.634017    4.432497   -2.564466
  H     -1.386695    5.240492   -0.313428
  H     -1.855198    3.595332    1.518983
  H     -1.568998    1.145964    1.107687
  H      0.999476    0.664774    1.055350
  H      4.628364   -1.677658    0.709148
  H      3.765434   -2.709940   -1.433375
  H      1.482108   -2.055188   -2.297840
  H      4.928062    1.672260    1.738357

 Total Charge           Charge          ....    0
 Multiplicity           Mult            ....    1
 Number of Electrons    NEL             ....  186
 Basis Dimension        Dim             ....  846

ORBITAL ENERGIES
----------------

  NO   OCC          E(Eh)            E(eV)
   0   2.0000     -90.145082     -2452.9724
   1   2.0000     -78.109467     -2125.4667
   2   2.0000     -19.696563      -535.9707
   3   2.0000     -19.651074      -534.7329
   4   2.0000     -19.647142      -534.6259
   5   2.0000     -19.579002      -532.7717
   6   2.0000     -10.609021      -288.6862
   7   2.0000     -10.593216      -288.2561
   8   2.0000     -10.591652      -288.2135
   9   2.0000     -10.583686      -287.9967
  10   2.0000     -10.582012      -287.9512
  11   2.0000     -10.581668      -287.9418
  12   2.0000     -10.570394      -287.6350
  13   2.0000     -10.569267      -287.6044
  14   2.0000     -10.568373      -287.5800
  15   2.0000     -10.567438      -287.5546
  16   2.0000     -10.565979      -287.5149
  17   2.0000     -10.565306      -287.4966
  18   2.0000     -10.565168      -287.4928
  19   2.0000     -10.564800      -287.4828
  20   2.0000     -10.564189      -287.4662
  21   2.0000     -10.563405      -287.4449
  22   2.0000     -10.562688      -287.4254
  23   2.0000     -10.562236      -287.4130
  24   2.0000      -8.469071      -230.4551
  25   2.0000      -6.915706      -188.1859
  26   2.0000      -6.392759      -173.9558
  27   2.0000      -6.389813      -173.8757
  28   2.0000      -6.388759      -173.8470
  29   2.0000      -5.032919      -136.9527
  30   2.0000      -5.032739      -136.9478
  31   2.0000      -5.031126      -136.9039
  32   2.0000      -1.266786       -34.4710
  33   2.0000      -1.164440       -31.6860
  34   2.0000      -1.141008       -31.0484
  35   2.0000      -1.074894       -29.2494
  36   2.0000      -0.996870       -27.1262
  37   2.0000      -0.972240       -26.4560
  38   2.0000      -0.968683       -26.3592
  39   2.0000      -0.894796       -24.3486
  40   2.0000      -0.885653       -24.0998
  41   2.0000      -0.863068       -23.4853
  42   2.0000      -0.855701       -23.2848
  43   2.0000      -0.854789       -23.2600
  44   2.0000      -0.851751       -23.1773
  45   2.0000      -0.784723       -21.3534
  46   2.0000      -0.750748       -20.4289
  47   2.0000      -0.718925       -19.5629
  48   2.0000      -0.704587       -19.1728
  49   2.0000      -0.701977       -19.1018
  50   2.0000      -0.696723       -18.9588
  51   2.0000      -0.691165       -18.8075
  52   2.0000      -0.659102       -17.9351
  53   2.0000      -0.632502       -17.2113
  54   2.0000      -0.619344       -16.8532
  55   2.0000      -0.605268       -16.4702
  56   2.0000      -0.589055       -16.0290
  57   2.0000      -0.579739       -15.7755
  58   2.0000      -0.578209       -15.7339
  59   2.0000      -0.558836       -15.2067
  60   2.0000      -0.539584       -14.6828
  61   2.0000      -0.539157       -14.6712
  62   2.0000      -0.533326       -14.5126
  63   2.0000      -0.529685       -14.4135
  64   2.0000      -0.528099       -14.3703
  65   2.0000      -0.526213       -14.3190
  66   2.0000      -0.507562       -13.8115
  67   2.0000      -0.502342       -13.6694
  68   2.0000      -0.499373       -13.5886
  69   2.0000      -0.498600       -13.5676
  70   2.0000      -0.480325       -13.0703
  71   2.0000      -0.471696       -12.8355
  72   2.0000      -0.461732       -12.5644
  73   2.0000      -0.455620       -12.3980
  74   2.0000      -0.451802       -12.2941
  75   2.0000      -0.449513       -12.2319
  76   2.0000      -0.437604       -11.9078
  77   2.0000      -0.435594       -11.8531
  78   2.0000      -0.421790       -11.4775
  79   2.0000      -0.420698       -11.4478
  80   2.0000      -0.416922       -11.3450
  81   2.0000      -0.415076       -11.2948
  82   2.0000      -0.413117       -11.2415
  83   2.0000      -0.405357       -11.0303
  84   2.0000      -0.401415       -10.9231
  85   2.0000      -0.354832        -9.6555
  86   2.0000      -0.351049        -9.5525
  87   2.0000      -0.343916        -9.3584
  88   2.0000      -0.339612        -9.2413
  89   2.0000      -0.327289        -8.9060
  90   2.0000      -0.323319        -8.7980
  91   2.0000      -0.321794        -8.7565
  92   2.0000      -0.319009        -8.6807
  93   0.0000      -0.038500        -1.0476
  94   0.0000      -0.030048        -0.8176
  95   0.0000      -0.017041        -0.4637
  96   0.0000      -0.005598        -0.1523
  97   0.0000      -0.000265        -0.0072

MULLIKEN ATOMIC CHARGES
-----------------------
   0 C :   -0.133650
   1 C :   -0.134385
   2 C :   -0.151864
   3 C :   -0.055975
   4 C :   -0.207912
   5 C :   -0.154107
   6 P :    0.630641
   7 O :   -0.595291
   8 C :   -0.058046
   9 C :   -0.156211
  10 C :   -0.132846
  11 C :   -0.132808
  12 C :   -0.145129
  13 C :   -0.204171
  14 C :   -0.044916
  15 C :   -0.263185
  16 C :   -0.054668
  17 C :   -0.135228
  18 C :   -0.125523
  19 C :   -0.138595
  20 S :    0.893701
  21 O :   -0.456924
  22 O :   -0.472253
  23 O :   -0.418962
  24 H :    0.151825
  25 H :    0.152298
  26 H :    0.187203
  27 H :    0.204541
  28 H :    0.155035
  29 H :    0.186444
  30 H :    0.151453
  31 H :    0.151610
  32 H :    0.152706
  33 H :    0.202056
  34 H :    0.247999
  35 H :    0.194375
  36 H :    0.160261
  37 H :    0.195655
  38 H :    0.354846
Sum of atomic charges:   -0.0000000

LOEWDIN ATOMIC CHARGES
----------------------
   0 C :   -0.127935
   1 C :   -0.133218
   2 C :   -0.113613
   3 C :   -0.230977
   4 C :   -0.136882
   5 C :   -0.136296
   6 P :    0.687273
   7 O :   -0.304065
   8 C :   -0.232639
   9 C :   -0.114749
  10 C :   -0.133400
  11 C :   -0.126918
  12 C :   -0.134386
  13 C :   -0.135201
  14 C :   -0.213197
  15 C :   -0.113608
  16 C :   -0.273089
  17 C :   -0.111250
  18 C :   -0.120816
  19 C :   -0.090926
  20 S :    0.722305
  21 O :   -0.287763
  22 O :   -0.311633
  23 O :   -0.200830
  24 H :    0.149958
  25 H :    0.150597
  26 H :    0.161195
  27 H :    0.156976
  28 H :    0.151346
  29 H :    0.160578
  30 H :    0.150374
  31 H :    0.149996
  32 H :    0.151128
  33 H :    0.156875
  34 H :    0.167046
  35 H :    0.161789
  36 H :    0.155151
  37 H :    0.165691
  38 H :    0.185112

  Mayer bond orders larger than 0.100000
B(  0-C ,  1-C ) :   1.4308 B(  0-C ,  5-C ) :   1.4399 B(  0-C , 24-H ) :   0.9460
B(  1-C ,  2-C ) :   1.4396 B(  1-C , 25-H ) :   0.9466 B(  2-C ,  3-C ) :   1.4287
B(  2-C , 26-H ) :   0.9095 B(  3-C ,  4-C ) :   1.3120 B(  3-C ,  6-P ) :   0.9230
B(  4-C ,  5-C ) :   1.4990 B(  4-C , 27-H ) :   0.9123 B(  5-C , 28-H ) :   0.9409
B(  6-P ,  7-O ) :   1.9499 B(  6-P ,  8-C ) :   0.9222 B(  6-P , 14-C ) :   0.9018
B(  8-C ,  9-C ) :   1.4312 B(  8-C , 13-C ) :   1.3195 B(  9-C , 10-C ) :   1.4430
B(  9-C , 29-H ) :   0.9092 B( 10-C , 11-C ) :   1.4310 B( 10-C , 30-H ) :   0.9466
B( 11-C , 12-C ) :   1.4426 B( 11-C , 31-H ) :   0.9458 B( 12-C , 13-C ) :   1.4895
B( 12-C , 32-H ) :   0.9409 B( 13-C , 33-H ) :   0.9137 B( 14-C , 15-C ) :   1.3615
B( 14-C , 19-C ) :   1.4408 B( 15-C , 16-C ) :   1.4848 B( 15-C , 34-H ) :   0.8443
B( 16-C , 17-C ) :   1.4272 B( 16-C , 20-S ) :   0.8820 B( 17-C , 18-C ) :   1.4288
B( 17-C , 35-H ) :   0.9028 B( 18-C , 19-C ) :   1.4374 B( 18-C , 36-H ) :   0.9473
B( 19-C , 37-H ) :   0.9038 B( 20-S , 21-O ) :   1.8543 B( 20-S , 22-O ) :   1.8257
B( 20-S , 23-O ) :   1.0522 B( 23-O , 38-H ) :   0.8488

Dispersion correction           -0.003097067
FINAL SINGLE POINT ENERGY     -1735.375857928404

DIPOLE MOMENT
-------------

Method             : SCF
Type of density    : Electron Density
Multiplicity       :   1
Irrep              :   0
Energy             : -1735.3727608612728091 Eh
Relativity type    :
Basis              : AO
                                X                 Y                 Z
Electronic contribution:      9.602878418      -0.894289430       1.808092740
Nuclear contribution   :     -9.661066611       1.048383581      -2.054930950
                        -----------------------------------------
Total Dipole Moment    :     -0.058188193       0.154094152      -0.246838209
                        -----------------------------------------
Magnitude (a.u.)       :      0.296749010
Magnitude (Debye)      :      0.754276040

Rotational constants in cm-1:             0.008620             0.005150             0.004373
Rotational constants in MHz :           258.431614           154.390423           131.101014

                             ****ORCA TERMINATED NORMALLY****
TOTAL RUN TIME: 0 days 0 hours 2 minutes 43 seconds 282 msec
