                         Program Version 6.0.0  -   RELEASE   -
|  1> ! RIJONX B3LYP def2-SVP D3BJ TIGHTSCF Opt
|  2> %pal
|  3> nprocs 6
|  4> end
|  5>
|  6> * xyz 0 1
|  7> C     -1.212467    3.167952   -0.099322
|  8> C      0.056621    2.332034   -0.183779
|  9> P      0.077361    0.953547    1.045446
| 10> C     -1.262265   -0.113608    0.411749
| 11> C     -2.346613   -0.403823    1.253162
| 12> C     -3.399415   -1.209064    0.810894
| 13> C     -3.381772   -1.734593   -0.478660
| 14> C     -2.312263   -1.455898   -1.326041
| 15> C     -1.259848   -0.649906   -0.884262
| 16> C      1.570013   -0.007023    0.601277
| 17> C      1.637727   -1.375836    0.915104
| 18> C      2.770217   -2.135443    0.607562
| 19> C      3.864815   -1.535896   -0.006455
| 20> C      3.828741   -0.176979   -0.304210
| 21> C      2.693974    0.581605    0.003611
| 22> H     -1.354739    3.582755    0.904640
| 23> H     -1.155113    4.005878   -0.802064
| 24> H     -2.103230    2.584351   -0.353970
| 25> H      0.905355    2.994344    0.018455
| 26> H      0.176041    1.955421   -1.205167
| 27> H     -2.382273   -0.004301    2.264710
| 28> H     -4.232031   -1.424789    1.475234
| 29> H     -4.199903   -2.361847   -0.822440
| 30> H     -2.293404   -1.867074   -2.331897
| 31> H     -0.433519   -0.453698   -1.563800
| 32> H      0.801985   -1.871820    1.405854
| 33> H      2.794208   -3.193699    0.853638
| 34> H      4.747131   -2.123988   -0.243683
| 35> H      4.687240    0.299037   -0.770999
| 36> H      2.717427    1.642359   -0.227573
| 37> **                         ****END OF INPUT****
 Total Charge           Charge          ....    0
 Multiplicity           Mult            ....    1
 Number of Electrons    NEL             ....  114
Dispersion correction           -0.068224000
FINAL SINGLE POINT ENERGY      -883.045362491108
Dispersion correction             ... done (  0.1 sec)
Dispersion correction           -0.068546947
FINAL SINGLE POINT ENERGY      -883.047289557831
Dispersion correction             ... done (  0.1 sec)
Dispersion correction           -0.068573190
FINAL SINGLE POINT ENERGY      -883.047702335998
Dispersion correction             ... done (  0.1 sec)
FINAL SINGLE POINT ENERGY      -883.047806707449
FINAL SINGLE POINT ENERGY      -883.047841003335
FINAL SINGLE POINT ENERGY      -883.047861939088
FINAL SINGLE POINT ENERGY      -883.047884183870
FINAL SINGLE POINT ENERGY      -883.047892184708
FINAL SINGLE POINT ENERGY      -883.047897643475
Dispersion correction             ... done (  0.1 sec)
Dispersion correction           -0.068484296
FINAL SINGLE POINT ENERGY      -883.047898559764
Dispersion correction             ... done (  0.1 sec)
Dispersion correction           -0.068485522
FINAL SINGLE POINT ENERGY      -883.047898713316
Dispersion correction             ... done (  0.1 sec)
                    ***********************HURRAY********************

CARTESIAN COORDINATES (ANGSTROEM)
---------------------------------
  C     -1.251769    3.131487    0.090150
  C      0.045535    2.331239   -0.033002
  P      0.094681    0.895833    1.168801
  C     -1.245757   -0.154784    0.437442
  C     -2.456520   -0.267655    1.138069
  C     -3.520104   -1.008672    0.611800
  C     -3.379606   -1.653416   -0.619310
  C     -2.173779   -1.553513   -1.323455
  C     -1.115353   -0.809580   -0.799405
  C      1.586195   -0.031084    0.597715
  C      1.761617   -1.343056    1.077952
  C      2.887842   -2.088956    0.732561
  C      3.874635   -1.532622   -0.090005
  C      3.719425   -0.228619   -0.563060
  C      2.583652    0.516296   -0.224494
  H     -1.393112    3.512265    1.114786
  H     -1.246440    3.995854   -0.593291
  H     -2.128085    2.512565   -0.159263
  H      0.910625    2.973903    0.202485
  H      0.180626    1.961895   -1.063775
  H     -2.563036    0.229460    2.106400
  H     -4.457706   -1.086846    1.168450
  H     -4.207027   -2.237772   -1.030173
  H     -2.058924   -2.059812   -2.285666
  H     -0.173918   -0.741221   -1.350387
  H      0.997906   -1.786463    1.723600
  H      2.999594   -3.109044    1.109557
  H      4.760153   -2.114386   -0.358065
  H      4.484202    0.215707   -1.205773
  H      2.484446    1.530993   -0.613630

 Multiplicity           Mult            ....    1
 Number of Electrons    NEL             ....  114
 Basis Dimension        Dim             ....  289

ORBITAL ENERGIES
----------------

  NO   OCC          E(Eh)            E(eV)
   0   2.0000     -77.044201     -2096.4793
   1   2.0000     -10.191747      -277.3315
   2   2.0000     -10.191056      -277.3127
   3   2.0000     -10.190484      -277.2972
   4   2.0000     -10.190304      -277.2923
   5   2.0000     -10.190253      -277.2909
   6   2.0000     -10.190116      -277.2872
   7   2.0000     -10.189622      -277.2737
   8   2.0000     -10.189443      -277.2688
   9   2.0000     -10.188993      -277.2566
  10   2.0000     -10.188639      -277.2470
  11   2.0000     -10.188227      -277.2358
  12   2.0000     -10.187957      -277.2284
  13   2.0000     -10.187231      -277.2086
  14   2.0000     -10.180318      -277.0205
  15   2.0000      -6.540796      -177.9841
  16   2.0000      -4.706398      -128.0676
  17   2.0000      -4.705998      -128.0567
  18   2.0000      -4.703194      -127.9804
  19   2.0000      -0.848381       -23.0856
  20   2.0000      -0.842455       -22.9244
  21   2.0000      -0.770705       -20.9720
  22   2.0000      -0.739925       -20.1344
  23   2.0000      -0.736943       -20.0532
  24   2.0000      -0.734448       -19.9853
  25   2.0000      -0.731205       -19.8971
  26   2.0000      -0.644387       -17.5347
  27   2.0000      -0.605779       -16.4841
  28   2.0000      -0.598695       -16.2913
  29   2.0000      -0.588903       -16.0249
  30   2.0000      -0.588469       -16.0131
  31   2.0000      -0.544998       -14.8301
  32   2.0000      -0.513297       -13.9675
  33   2.0000      -0.495603       -13.4860
  34   2.0000      -0.454448       -12.3662
  35   2.0000      -0.451748       -12.2927
  36   2.0000      -0.448503       -12.2044
  37   2.0000      -0.443365       -12.0646
  38   2.0000      -0.440211       -11.9788
  39   2.0000      -0.425992       -11.5918
  40   2.0000      -0.419915       -11.4265
  41   2.0000      -0.418714       -11.3938
  42   2.0000      -0.401069       -10.9137
  43   2.0000      -0.374924       -10.2022
  44   2.0000      -0.371908       -10.1201
  45   2.0000      -0.367132        -9.9902
  46   2.0000      -0.362892        -9.8748
  47   2.0000      -0.350186        -9.5290
  48   2.0000      -0.344929        -9.3860
  49   2.0000      -0.344486        -9.3739
  50   2.0000      -0.319001        -8.6804
  51   2.0000      -0.312316        -8.4986
  52   2.0000      -0.268499        -7.3062
  53   2.0000      -0.257584        -7.0092
  54   2.0000      -0.256112        -6.9692
  55   2.0000      -0.252010        -6.8575
  56   2.0000      -0.215778        -5.8716
  57   0.0000      -0.022426        -0.6102
  58   0.0000      -0.015065        -0.4099
  59   0.0000      -0.013335        -0.3629
  60   0.0000      -0.002534        -0.0689
  61   0.0000       0.057747         1.5714

MULLIKEN ATOMIC CHARGES
-----------------------
   0 C :    0.026565
   1 C :   -0.176788
   2 P :    0.267340
   3 C :   -0.153143
   4 C :    0.020941
   5 C :    0.018851
   6 C :    0.023910
   7 C :    0.024172
   8 C :    0.031261
   9 C :   -0.129862
  10 C :    0.019749
  11 C :    0.019976
  12 C :    0.020235
  13 C :    0.027308
  14 C :   -0.010396
  15 H :    0.017555
  16 H :    0.015614
  17 H :    0.028102
  18 H :    0.044926
  19 H :    0.032383
  20 H :   -0.019774
  21 H :   -0.016015
  22 H :   -0.015110
  23 H :   -0.017501
  24 H :   -0.006091
  25 H :   -0.016290
  26 H :   -0.016728
  27 H :   -0.017427
  28 H :   -0.020120
  29 H :   -0.023644
Sum of atomic charges:   -0.0000000

LOEWDIN ATOMIC CHARGES
----------------------
   0 C :   -0.064245
   1 C :   -0.176327
   2 P :    0.494069
   3 C :   -0.173777
   4 C :   -0.031981
   5 C :   -0.027303
   6 C :   -0.021078
   7 C :   -0.025726
   8 C :   -0.023422
   9 C :   -0.173241
  10 C :   -0.027948
  11 C :   -0.024013
  12 C :   -0.027753
  13 C :   -0.024933
  14 C :   -0.042271
  15 H :    0.022774
  16 H :    0.025146
  17 H :    0.025320
  18 H :    0.021532
  19 H :    0.016740
  20 H :    0.022887
  21 H :    0.027153
  22 H :    0.026979
  23 H :    0.026961
  24 H :    0.027349
  25 H :    0.025124
  26 H :    0.027204
  27 H :    0.026202
  28 H :    0.026160
  29 H :    0.022418

  Mayer bond orders larger than 0.100000
B(  0-C ,  1-C ) :   1.0795 B(  0-C , 15-H ) :   0.9662 B(  0-C , 16-H ) :   0.9644
B(  0-C , 17-H ) :   0.9695 B(  1-C ,  2-P ) :   0.9870 B(  1-C , 18-H ) :   0.9380
B(  1-C , 19-H ) :   0.9286 B(  2-P ,  3-C ) :   0.9273 B(  2-P ,  9-C ) :   0.9120
B(  3-C ,  4-C ) :   1.3867 B(  3-C ,  8-C ) :   1.3699 B(  4-C ,  5-C ) :   1.3797
B(  4-C , 20-H ) :   0.9847 B(  5-C ,  6-C ) :   1.3919 B(  5-C , 21-H ) :   0.9856
B(  6-C ,  7-C ) :   1.3689 B(  6-C , 22-H ) :   0.9845 B(  7-C ,  8-C ) :   1.4036
B(  7-C , 23-H ) :   0.9837 B(  8-C , 24-H ) :   0.9766 B(  9-C , 10-C ) :   1.3660
B(  9-C , 14-C ) :   1.3875 B( 10-C , 11-C ) :   1.4225 B( 10-C , 25-H ) :   0.9804
B( 11-C , 12-C ) :   1.3662 B( 11-C , 26-H ) :   0.9844 B( 12-C , 13-C ) :   1.3940
B( 12-C , 27-H ) :   0.9845 B( 13-C , 14-C ) :   1.3818 B( 13-C , 28-H ) :   0.9817
B( 14-C , 29-H ) :   0.9797

Dispersion correction           -0.068487365
FINAL SINGLE POINT ENERGY      -883.047898895198

DIPOLE MOMENT
-------------

Method             : SCF
Type of density    : Electron Density
Multiplicity       :   1
Irrep              :   0
Energy             :  -882.9794115303405988 Eh
Relativity type    :
Basis              : AO
                                X                 Y                 Z
Electronic contribution:      2.381255158      -4.358807002       4.629125110
Nuclear contribution   :     -2.473327623       4.286958971      -5.116293229
                        -----------------------------------------
Total Dipole Moment    :     -0.092072465      -0.071848032      -0.487168118
                        -----------------------------------------
Magnitude (a.u.)       :      0.500971311
Magnitude (Debye)      :      1.273367875

Rotational constants in cm-1:             0.027666             0.012807             0.010179
Rotational constants in MHz :           829.404949           383.957923           305.161279

                             ****ORCA TERMINATED NORMALLY****
TOTAL RUN TIME: 0 days 0 hours 5 minutes 30 seconds 378 msec
