                         Program Version 6.0.0  -   RELEASE   -
|  1> ! RIJCOSX M062X def2-TZVP D3ZERO NormalSCF
|  2> %pal
|  3> nprocs 6
|  4> end
|  5>
|  6> * xyz 0 1
|  7>   C          -2.55299456392806     -0.99378907231636     -1.28348107989955
|  8>   C          -1.18642390625532     -1.33641860478114     -0.66067530137319
|  9>   C          -0.45928448670507     -2.36479275678740     -1.55472833685292
| 10>   C          -1.35347150875207     -1.91209692681156      0.75403362833208
| 11>   P          -0.08814354440488      0.20275678350903     -0.77469566673147
| 12>   O           0.22791194015039      0.51112799699883     -2.23737455963455
| 13>   C           1.45831446407596     -0.22489495238413      0.13178976035461
| 14>   C           2.61341002067492     -0.31140857260425     -0.67222060825853
| 15>   C           3.85471062083633     -0.62623667436067     -0.09724093420804
| 16>   C           3.95376284999771     -0.85039537937394      1.28610474614442
| 17>   C           2.80766461601870     -0.75738510488712      2.09467007189690
| 18>   C           1.56394798607110     -0.44758801453718      1.52148896592138
| 19>   C          -0.80609123696222      1.74980521226155      0.05725352369951
| 20>   C          -1.51879222230055      1.50450170176824      1.39538418260383
| 21>   C          -1.77625337117284      2.37965234189775     -0.96427553274086
| 22>   C           0.39669045619955      2.69868570736175      0.24975902364103
| 23>   H          -2.42682650617854     -0.49605390141094     -2.26542986634433
| 24>   H          -3.15709115485324     -0.33503497369752     -0.62784044574084
| 25>   H          -3.13362939833212     -1.92743354943524     -1.44197674714502
| 26>   H          -0.30157112475171     -1.95767222868068     -2.57165827614883
| 27>   H           0.53098707883230     -2.63707601011508     -1.13604952377515
| 28>   H          -1.06904365044650     -3.29061519077511     -1.62296050177162
| 29>   H          -1.99498716694935     -2.81828289245457      0.70293497295302
| 30>   H          -1.83980309443968     -1.20501071566527      1.45290634840705
| 31>   H          -0.38275011335808     -2.22245278755797      1.18715304888302
| 32>   H           2.50406618338101     -0.11746125205595     -1.75099830077640
| 33>   H           4.75126207598226     -0.69349077269797     -0.73279186162599
| 34>   H           4.92723200037432     -1.09534679127933      1.73821313390454
| 35>   H           2.88231222401117     -0.92680501984722      3.17991121903940
| 36>   H           0.67870138229364     -0.37349937933328      2.16917773926899
| 37>   H          -2.41923728870706      0.87043280893593      1.27611476100197
| 38>   H          -1.85465138162740      2.47704406929589      1.81555827626133
| 39>   H          -0.85810250000400      1.03566858311371      2.15112736194082
| 40>   H          -2.70501336789991      1.78827948093889     -1.07802117695622
| 41>   H          -1.29389119986615      2.45624247223755     -1.95762627825341
| 42>   H          -2.06216017492721      3.39639487140729     -0.62063874338553
| 43>   H           0.96527092312185      2.80986427008356     -0.69531429454143
| 44>   H           0.02943671274719      3.70253882778439      0.55158057769422
| 45>   H           1.09453042805353      2.33824639625553      1.03083569421576
| 46> **                         ****END OF INPUT****

CARTESIAN COORDINATES (ANGSTROEM)
---------------------------------
  C     -2.552995   -0.993789   -1.283481
  C     -1.186424   -1.336419   -0.660675
  C     -0.459284   -2.364793   -1.554728
  C     -1.353472   -1.912097    0.754034
  P     -0.088144    0.202757   -0.774696
  O      0.227912    0.511128   -2.237375
  C      1.458314   -0.224895    0.131790
  C      2.613410   -0.311409   -0.672221
  C      3.854711   -0.626237   -0.097241
  C      3.953763   -0.850395    1.286105
  C      2.807665   -0.757385    2.094670
  C      1.563948   -0.447588    1.521489
  C     -0.806091    1.749805    0.057254
  C     -1.518792    1.504502    1.395384
  C     -1.776253    2.379652   -0.964276
  C      0.396690    2.698686    0.249759
  H     -2.426827   -0.496054   -2.265430
  H     -3.157091   -0.335035   -0.627840
  H     -3.133629   -1.927434   -1.441977
  H     -0.301571   -1.957672   -2.571658
  H      0.530987   -2.637076   -1.136050
  H     -1.069044   -3.290615   -1.622961
  H     -1.994987   -2.818283    0.702935
  H     -1.839803   -1.205011    1.452906
  H     -0.382750   -2.222453    1.187153
  H      2.504066   -0.117461   -1.750998
  H      4.751262   -0.693491   -0.732792
  H      4.927232   -1.095347    1.738213
  H      2.882312   -0.926805    3.179911
  H      0.678701   -0.373499    2.169178
  H     -2.419237    0.870433    1.276115
  H     -1.854651    2.477044    1.815558
  H     -0.858103    1.035669    2.151127
  H     -2.705013    1.788279   -1.078021
  H     -1.293891    2.456242   -1.957626
  H     -2.062160    3.396395   -0.620639
  H      0.965271    2.809864   -0.695314
  H      0.029437    3.702539    0.551581
  H      1.094530    2.338246    1.030836

 Total Charge           Charge          ....    0
 Multiplicity           Mult            ....    1
 Number of Electrons    NEL             ....  130
 Basis Dimension        Dim             ....  640

ORBITAL ENERGIES
----------------

  NO   OCC          E(Eh)            E(eV)
   0   2.0000     -78.083944     -2124.7721
   1   2.0000     -19.556322      -532.1546
   2   2.0000     -10.565613      -287.5049
   3   2.0000     -10.564296      -287.4691
   4   2.0000     -10.563145      -287.4378
   5   2.0000     -10.558857      -287.3211
   6   2.0000     -10.557977      -287.2972
   7   2.0000     -10.557201      -287.2760
   8   2.0000     -10.554964      -287.2152
   9   2.0000     -10.553224      -287.1678
  10   2.0000     -10.544974      -286.9433
  11   2.0000     -10.540157      -286.8122
  12   2.0000     -10.537016      -286.7268
  13   2.0000     -10.533259      -286.6246
  14   2.0000     -10.529530      -286.5231
  15   2.0000     -10.529357      -286.5184
  16   2.0000      -6.891064      -187.5154
  17   2.0000      -5.008125      -136.2780
  18   2.0000      -5.007388      -136.2580
  19   2.0000      -5.006316      -136.2288
  20   2.0000      -1.052969       -28.6528
  21   2.0000      -0.962308       -26.1857
  22   2.0000      -0.919839       -25.0301
  23   2.0000      -0.908232       -24.7143
  24   2.0000      -0.850301       -23.1379
  25   2.0000      -0.847294       -23.0560
  26   2.0000      -0.786677       -21.4066
  27   2.0000      -0.781809       -21.2741
  28   2.0000      -0.775936       -21.1143
  29   2.0000      -0.771737       -21.0000
  30   2.0000      -0.721045       -19.6206
  31   2.0000      -0.693197       -18.8628
  32   2.0000      -0.669781       -18.2257
  33   2.0000      -0.632848       -17.2207
  34   2.0000      -0.607753       -16.5378
  35   2.0000      -0.573506       -15.6059
  36   2.0000      -0.540732       -14.7141
  37   2.0000      -0.539151       -14.6710
  38   2.0000      -0.524836       -14.2815
  39   2.0000      -0.520361       -14.1597
  40   2.0000      -0.511359       -13.9148
  41   2.0000      -0.507699       -13.8152
  42   2.0000      -0.500169       -13.6103
  43   2.0000      -0.496259       -13.5039
  44   2.0000      -0.489849       -13.3295
  45   2.0000      -0.473539       -12.8856
  46   2.0000      -0.459514       -12.5040
  47   2.0000      -0.454755       -12.3745
  48   2.0000      -0.450751       -12.2656
  49   2.0000      -0.446899       -12.1607
  50   2.0000      -0.440579       -11.9888
  51   2.0000      -0.431612       -11.7448
  52   2.0000      -0.428374       -11.6567
  53   2.0000      -0.419206       -11.4072
  54   2.0000      -0.409917       -11.1544
  55   2.0000      -0.404230       -10.9996
  56   2.0000      -0.394609       -10.7378
  57   2.0000      -0.394414       -10.7325
  58   2.0000      -0.390889       -10.6366
  59   2.0000      -0.381201       -10.3730
  60   2.0000      -0.377115       -10.2618
  61   2.0000      -0.322470        -8.7749
  62   2.0000      -0.319497        -8.6940
  63   2.0000      -0.315206        -8.5772
  64   2.0000      -0.306666        -8.3448
  65   0.0000      -0.004554        -0.1239
  66   0.0000       0.009369         0.2550
  67   0.0000       0.054759         1.4901
  68   0.0000       0.069508         1.8914
  69   0.0000       0.081291         2.2120

MULLIKEN ATOMIC CHARGES
-----------------------
   0 C :   -0.489691
   1 C :   -0.006324
   2 C :   -0.470094
   3 C :   -0.494305
   4 P :    0.569276
   5 O :   -0.610978
   6 C :   -0.093009
   7 C :   -0.120412
   8 C :   -0.144896
   9 C :   -0.131722
  10 C :   -0.153643
  11 C :   -0.238257
  12 C :   -0.038297
  13 C :   -0.484852
  14 C :   -0.443359
  15 C :   -0.458483
  16 H :    0.200459
  17 H :    0.143467
  18 H :    0.154701
  19 H :    0.192275
  20 H :    0.165352
  21 H :    0.146885
  22 H :    0.158173
  23 H :    0.165949
  24 H :    0.177796
  25 H :    0.204082
  26 H :    0.149923
  27 H :    0.148744
  28 H :    0.146881
  29 H :    0.178719
  30 H :    0.148950
  31 H :    0.163467
  32 H :    0.164489
  33 H :    0.149571
  34 H :    0.200221
  35 H :    0.145355
  36 H :    0.187832
  37 H :    0.148135
  38 H :    0.167620
Sum of atomic charges:   -0.0000000

LOEWDIN ATOMIC CHARGES
----------------------
   0 C :   -0.290131
   1 C :   -0.417690
   2 C :   -0.286054
   3 C :   -0.291549
   4 P :    0.713546
   5 O :   -0.325291
   6 C :   -0.234906
   7 C :   -0.120733
   8 C :   -0.136979
   9 C :   -0.133960
  10 C :   -0.143596
  11 C :   -0.149937
  12 C :   -0.414772
  13 C :   -0.291757
  14 C :   -0.288120
  15 C :   -0.285168
  16 H :    0.137908
  17 H :    0.120105
  18 H :    0.130206
  19 H :    0.138588
  20 H :    0.130497
  21 H :    0.127435
  22 H :    0.132845
  23 H :    0.124018
  24 H :    0.132333
  25 H :    0.163924
  26 H :    0.149385
  27 H :    0.148312
  28 H :    0.148288
  29 H :    0.146299
  30 H :    0.122560
  31 H :    0.133749
  32 H :    0.122484
  33 H :    0.123441
  34 H :    0.140565
  35 H :    0.127554
  36 H :    0.138532
  37 H :    0.128445
  38 H :    0.129623

  Mayer bond orders larger than 0.100000
B(  0-C ,  1-C ) :   0.9258 B(  0-C , 16-H ) :   0.9596 B(  0-C , 17-H ) :   0.9632
B(  0-C , 18-H ) :   0.9595 B(  1-C ,  2-C ) :   0.9673 B(  1-C ,  3-C ) :   0.9245
B(  1-C ,  4-P ) :   0.8408 B(  2-C , 19-H ) :   0.9532 B(  2-C , 20-H ) :   0.9574
B(  2-C , 21-H ) :   0.9581 B(  3-C , 22-H ) :   0.9557 B(  3-C , 23-H ) :   0.9661
B(  3-C , 24-H ) :   0.9599 B(  4-P ,  5-O ) :   1.8809 B(  4-P ,  6-C ) :   0.9057
B(  4-P , 12-C ) :   0.8390 B(  6-C ,  7-C ) :   1.4117 B(  6-C , 11-C ) :   1.2978
B(  7-C ,  8-C ) :   1.4345 B(  7-C , 25-H ) :   0.9084 B(  8-C ,  9-C ) :   1.4392
B(  8-C , 26-H ) :   0.9471 B(  9-C , 10-C ) :   1.4403 B(  9-C , 27-H ) :   0.9466
B( 10-C , 11-C ) :   1.5083 B( 10-C , 28-H ) :   0.9437 B( 11-C , 29-H ) :   0.9376
B( 12-C , 13-C ) :   0.9150 B( 12-C , 14-C ) :   0.9681 B( 12-C , 15-C ) :   0.9639
B( 13-C , 30-H ) :   0.9608 B( 13-C , 31-H ) :   0.9579 B( 13-C , 32-H ) :   0.9672
B( 14-C , 33-H ) :   0.9556 B( 14-C , 34-H ) :   0.9536 B( 14-C , 35-H ) :   0.9593
B( 15-C , 36-H ) :   0.9569 B( 15-C , 37-H ) :   0.9573 B( 15-C , 38-H ) :   0.9570

Dispersion correction           -0.002771070
FINAL SINGLE POINT ENERGY      -963.902328905736

DIPOLE MOMENT
-------------

Method             : SCF
Type of density    : Electron Density
Multiplicity       :   1
Irrep              :   0
Energy             :  -963.8995578355416001 Eh
Relativity type    :
Basis              : AO
                                X                 Y                 Z
Electronic contribution:     13.183953492      -1.105707820      -2.707606594
Nuclear contribution   :    -13.364403784       0.789727848       4.138485540
                        -----------------------------------------
Total Dipole Moment    :     -0.180450292      -0.315979972       1.430878947
                        -----------------------------------------
Magnitude (a.u.)       :      1.476421420
Magnitude (Debye)      :      3.752765013

Rotational constants in cm-1:             0.022176             0.013349             0.011535
Rotational constants in MHz :           664.827231           400.182399           345.808119

                             ****ORCA TERMINATED NORMALLY****
TOTAL RUN TIME: 0 days 0 hours 2 minutes 7 seconds 132 msec
