                         Program Version 6.0.0  -   RELEASE   -
|  1> ! RIJCOSX M062X def2-TZVP D3ZERO NormalSCF
|  2> %pal
|  3> nprocs 6
|  4> end
|  5>
|  6> * xyz 0 1
|  7>   C           3.85260713670466     -1.67246215304452     -1.02367288373398
|  8>   C           2.70777887893704     -1.17014059217640     -0.13975828125908
|  9>   C           1.32330489079975     -1.38800557284458     -0.76683031754499
| 10>   P          -0.01724284071973     -0.88020186513110      0.39002454956721
| 11>   O           0.07443689716073     -1.52429376363869      1.76439222795857
| 12>   C          -1.59934588184740     -1.21138651713867     -0.49300004663607
| 13>   C          -2.80815293762026     -0.82595319664141      0.37136058423038
| 14>   C          -4.14832721082456     -1.19586840060069     -0.26987604683733
| 15>   C           0.10226573355629      0.95046698545030      0.48541515973959
| 16>   C           0.04410197066573      1.79372895400684     -0.64307528288210
| 17>   C           0.14419572659279      3.18500789253334     -0.48587357527708
| 18>   C           0.30276469351090      3.73739484909727      0.79782361897966
| 19>   C           0.36091513277609      2.89870972709420      1.92383449333532
| 20>   C           0.26090378132411      1.50656962628485      1.76952408404901
| 21>   H           3.86477318111169     -1.15378248444183     -2.00556964294933
| 22>   H           4.83783035774858     -1.50308054457003     -0.54346663395799
| 23>   H           3.76068423959078     -2.76065781534687     -1.22431594941462
| 24>   H           2.72271495113492     -1.67927406377539      0.84694878680570
| 25>   H           2.84181530860694     -0.08747237517092      0.07573222735711
| 26>   H           1.21292028266457     -0.83550003659499     -1.72584082796735
| 27>   H           1.15479423119296     -2.46491954372708     -0.98822274500926
| 28>   H          -1.60780796929229     -2.29964921118247     -0.72253612889155
| 29>   H          -1.59631537681227     -0.67130873964109     -1.46538805220998
| 30>   H          -2.69844375663782     -1.32269483237925      1.35858197047993
| 31>   H          -2.77335133147148      0.26643496332461      0.57610035722252
| 32>   H          -4.28555319671076     -0.68839109957778     -1.24811027355467
| 33>   H          -4.99969155339157     -0.90669996377273      0.37939787638947
| 34>   H          -4.22145096393722     -2.28903924517890     -0.45018383100559
| 35>   H          -0.07990376815994      1.36873881437963     -1.65248578210519
| 36>   H           0.09855998041294      3.84277888361478     -1.36757762553574
| 37>   H           0.38102566736031      4.82886756690160      0.91900446233308
| 38>   H           0.48489956366697      3.33261079083631      2.92812526552847
| 39>   H           0.30229418190654      0.81947296305167      2.62951726279585
| 40> **                         ****END OF INPUT****

CARTESIAN COORDINATES (ANGSTROEM)
---------------------------------
  C      3.852607   -1.672462   -1.023673
  C      2.707779   -1.170141   -0.139758
  C      1.323305   -1.388006   -0.766830
  P     -0.017243   -0.880202    0.390025
  O      0.074437   -1.524294    1.764392
  C     -1.599346   -1.211387   -0.493000
  C     -2.808153   -0.825953    0.371361
  C     -4.148327   -1.195868   -0.269876
  C      0.102266    0.950467    0.485415
  C      0.044102    1.793729   -0.643075
  C      0.144196    3.185008   -0.485874
  C      0.302765    3.737395    0.797824
  C      0.360915    2.898710    1.923834
  C      0.260904    1.506570    1.769524
  H      3.864773   -1.153782   -2.005570
  H      4.837830   -1.503081   -0.543467
  H      3.760684   -2.760658   -1.224316
  H      2.722715   -1.679274    0.846949
  H      2.841815   -0.087472    0.075732
  H      1.212920   -0.835500   -1.725841
  H      1.154794   -2.464920   -0.988223
  H     -1.607808   -2.299649   -0.722536
  H     -1.596315   -0.671309   -1.465388
  H     -2.698444   -1.322695    1.358582
  H     -2.773351    0.266435    0.576100
  H     -4.285553   -0.688391   -1.248110
  H     -4.999692   -0.906700    0.379398
  H     -4.221451   -2.289039   -0.450184
  H     -0.079904    1.368739   -1.652486
  H      0.098560    3.842779   -1.367578
  H      0.381026    4.828868    0.919004
  H      0.484900    3.332611    2.928125
  H      0.302294    0.819473    2.629517

 Total Charge           Charge          ....    0
 Multiplicity           Mult            ....    1
 Number of Electrons    NEL             ....  114
 Basis Dimension        Dim             ....  554

ORBITAL ENERGIES
----------------

  NO   OCC          E(Eh)            E(eV)
   0   2.0000     -78.086711     -2124.8474
   1   2.0000     -19.560621      -532.2716
   2   2.0000     -10.565098      -287.4909
   3   2.0000     -10.560358      -287.3620
   4   2.0000     -10.559607      -287.3415
   5   2.0000     -10.557181      -287.2755
   6   2.0000     -10.556653      -287.2611
   7   2.0000     -10.555298      -287.2242
   8   2.0000     -10.549981      -287.0796
   9   2.0000     -10.549831      -287.0755
  10   2.0000     -10.542568      -286.8778
  11   2.0000     -10.542428      -286.8741
  12   2.0000     -10.532611      -286.6069
  13   2.0000     -10.532539      -286.6049
  14   2.0000      -6.893553      -187.5831
  15   2.0000      -5.010742      -136.3492
  16   2.0000      -5.010342      -136.3383
  17   2.0000      -5.008850      -136.2977
  18   2.0000      -1.055991       -28.7350
  19   2.0000      -0.963796       -26.2262
  20   2.0000      -0.896050       -24.3828
  21   2.0000      -0.885492       -24.0955
  22   2.0000      -0.852179       -23.1890
  23   2.0000      -0.848755       -23.0958
  24   2.0000      -0.802069       -21.8254
  25   2.0000      -0.774094       -21.0642
  26   2.0000      -0.702002       -19.1025
  27   2.0000      -0.695277       -18.9194
  28   2.0000      -0.682136       -18.5619
  29   2.0000      -0.666345       -18.1322
  30   2.0000      -0.623644       -16.9702
  31   2.0000      -0.584095       -15.8940
  32   2.0000      -0.544080       -14.8052
  33   2.0000      -0.536075       -14.5874
  34   2.0000      -0.527601       -14.3568
  35   2.0000      -0.524105       -14.2616
  36   2.0000      -0.509238       -13.8571
  37   2.0000      -0.497048       -13.5254
  38   2.0000      -0.494051       -13.4438
  39   2.0000      -0.481403       -13.0996
  40   2.0000      -0.479931       -13.0596
  41   2.0000      -0.457263       -12.4428
  42   2.0000      -0.456864       -12.4319
  43   2.0000      -0.443811       -12.0767
  44   2.0000      -0.443529       -12.0690
  45   2.0000      -0.423306       -11.5188
  46   2.0000      -0.411977       -11.2105
  47   2.0000      -0.404480       -11.0065
  48   2.0000      -0.404293       -11.0014
  49   2.0000      -0.397909       -10.8277
  50   2.0000      -0.393011       -10.6944
  51   2.0000      -0.392365       -10.6768
  52   2.0000      -0.388914       -10.5829
  53   2.0000      -0.328140        -8.9291
  54   2.0000      -0.326966        -8.8972
  55   2.0000      -0.317042        -8.6272
  56   2.0000      -0.314887        -8.5685
  57   0.0000      -0.005529        -0.1505
  58   0.0000       0.007483         0.2036
  59   0.0000       0.050980         1.3872
  60   0.0000       0.073371         1.9965
  61   0.0000       0.077384         2.1057

MULLIKEN ATOMIC CHARGES
-----------------------
   0 C :   -0.424878
   1 C :   -0.258227
   2 C :   -0.385172
   3 P :    0.659199
   4 O :   -0.606807
   5 C :   -0.385481
   6 C :   -0.259144
   7 C :   -0.423891
   8 C :   -0.152753
   9 C :   -0.166491
  10 C :   -0.156960
  11 C :   -0.133790
  12 C :   -0.137741
  13 C :   -0.120978
  14 H :    0.134572
  15 H :    0.147218
  16 H :    0.139990
  17 H :    0.172573
  18 H :    0.149645
  19 H :    0.165293
  20 H :    0.166994
  21 H :    0.167079
  22 H :    0.165984
  23 H :    0.172801
  24 H :    0.150044
  25 H :    0.134450
  26 H :    0.147122
  27 H :    0.140102
  28 H :    0.156324
  29 H :    0.146145
  30 H :    0.148861
  31 H :    0.150718
  32 H :    0.197201
Sum of atomic charges:   -0.0000000

LOEWDIN ATOMIC CHARGES
----------------------
   0 C :   -0.323555
   1 C :   -0.317518
   2 C :   -0.369657
   3 P :    0.611311
   4 O :   -0.322399
   5 C :   -0.369692
   6 C :   -0.317653
   7 C :   -0.323504
   8 C :   -0.239678
   9 C :   -0.140485
  10 C :   -0.142108
  11 C :   -0.133883
  12 C :   -0.136184
  13 C :   -0.120083
  14 H :    0.121119
  15 H :    0.124531
  16 H :    0.122912
  17 H :    0.149024
  18 H :    0.142520
  19 H :    0.139011
  20 H :    0.145323
  21 H :    0.145456
  22 H :    0.139113
  23 H :    0.149129
  24 H :    0.142519
  25 H :    0.121087
  26 H :    0.124547
  27 H :    0.122958
  28 H :    0.146894
  29 H :    0.148278
  30 H :    0.148524
  31 H :    0.149478
  32 H :    0.162667

  Mayer bond orders larger than 0.100000
B(  0-C ,  1-C ) :   0.9355 B(  0-C , 14-H ) :   0.9732 B(  0-C , 15-H ) :   0.9800
B(  0-C , 16-H ) :   0.9739 B(  1-C ,  2-C ) :   0.9195 B(  1-C , 17-H ) :   0.9671
B(  1-C , 18-H ) :   0.9658 B(  2-C ,  3-P ) :   0.9140 B(  2-C , 19-H ) :   0.9453
B(  2-C , 20-H ) :   0.9404 B(  3-P ,  4-O ) :   1.9289 B(  3-P ,  5-C ) :   0.9151
B(  3-P ,  8-C ) :   0.9078 B(  5-C ,  6-C ) :   0.9189 B(  5-C , 21-H ) :   0.9404
B(  5-C , 22-H ) :   0.9452 B(  6-C ,  7-C ) :   0.9361 B(  6-C , 23-H ) :   0.9668
B(  6-C , 24-H ) :   0.9658 B(  7-C , 25-H ) :   0.9731 B(  7-C , 26-H ) :   0.9799
B(  7-C , 27-H ) :   0.9742 B(  8-C ,  9-C ) :   1.3560 B(  8-C , 13-C ) :   1.3962
B(  9-C , 10-C ) :   1.4992 B(  9-C , 28-H ) :   0.9183 B( 10-C , 11-C ) :   1.4357
B( 10-C , 29-H ) :   0.9472 B( 11-C , 12-C ) :   1.4389 B( 11-C , 30-H ) :   0.9457
B( 12-C , 13-C ) :   1.4263 B( 12-C , 31-H ) :   0.9479 B( 13-C , 32-H ) :   0.9083

Dispersion correction           -0.001747502
FINAL SINGLE POINT ENERGY      -885.291112495053

DIPOLE MOMENT
-------------

Method             : SCF
Type of density    : Electron Density
Multiplicity       :   1
Irrep              :   0
Energy             :  -885.2893649934093219 Eh
Relativity type    :
Basis              : AO
                                X                 Y                 Z
Electronic contribution:      1.001251138       5.919960704       6.878907245
Nuclear contribution   :     -1.076449694      -5.072391074      -8.202220968
                        -----------------------------------------
Total Dipole Moment    :     -0.075198557       0.847569630      -1.323313723
                        -----------------------------------------
Magnitude (a.u.)       :      1.573273120
Magnitude (Debye)      :      3.998942469

Rotational constants in cm-1:             0.018131             0.017580             0.010998
Rotational constants in MHz :           543.542558           527.043295           329.709765

                             ****ORCA TERMINATED NORMALLY****
TOTAL RUN TIME: 0 days 0 hours 1 minutes 17 seconds 938 msec
