                         Program Version 6.0.0  -   RELEASE   -
|  1> ! RIJCOSX M062X def2-TZVP D3ZERO NormalSCF
|  2> %pal
|  3> nprocs 6
|  4> end
|  5>
|  6> * xyz 0 1
|  7>   C           5.26375510509812      0.92752150980335      0.23849489566882
|  8>   C           3.87931623767667      1.55044326362582      0.44301013757469
|  9>   C           2.76874447758885      0.82261883389982     -0.32711450827052
| 10>   C           1.37812279791728      1.43096833953029     -0.11581156408037
| 11>   P           0.05131129758436      0.54944709513311     -1.11234396454510
| 12>   C          -1.47108780832594      1.33092912758856     -0.33891668720337
| 13>   C          -2.76588302168219      0.60916393563772     -0.72828261962371
| 14>   C          -4.02706997085134      1.25428334162920     -0.13726442462579
| 15>   C          -5.31548764974615      0.51492417225059     -0.51104359938421
| 16>   C           0.05737084766827     -1.09178608913770     -0.23663341613754
| 17>   C          -0.13284146078663     -1.23009901582607      1.15571378120619
| 18>   C          -0.10590312844504     -2.49558025167535      1.76100636119291
| 19>   C           0.11473311074007     -3.64554425472416      0.98142173948077
| 20>   C           0.30615925623019     -3.52232213117459     -0.40395577544071
| 21>   C           0.27530183040639     -2.25294430803979     -1.00703736066674
| 22>   H           6.04671499648252      1.46780368965376      0.80876918170222
| 23>   H           5.27975680066163     -0.13265573184514      0.56841061263118
| 24>   H           5.55828913714661      0.94343765956958     -0.83210244204782
| 25>   H           3.62582517854045      1.55504828861226      1.52702323123777
| 26>   H           3.89809494526629      2.62005925877285      0.13473784823562
| 27>   H           2.74927442219028     -0.24671656720151     -0.01907882522505
| 28>   H           3.01066799822223      0.81857592884178     -1.41390174454101
| 29>   H           1.10993132606629      1.42502500633078      0.96476297473746
| 30>   H           1.36471006284779      2.49471303349628     -0.44207161298804
| 31>   H          -1.36602721963401      1.37293874223892      0.76869211848900
| 32>   H          -1.49339659541283      2.38587503804822     -0.69177687219023
| 33>   H          -2.70698321756833     -0.45122158153880     -0.39533602816188
| 34>   H          -2.85047841450710      0.57170575995416     -1.83771866570683
| 35>   H          -4.08924188798759      2.31380177969985     -0.47357991318478
| 36>   H          -3.92680394287830      1.29696746146500      0.97074217162905
| 37>   H          -6.21061756039193      0.99841155545826     -0.06933573746691
| 38>   H          -5.45869079694292      0.48681686813287     -1.61186267276456
| 39>   H          -5.29213021231166     -0.53680240600297     -0.15555764312783
| 40>   H          -0.30482098882569     -0.33863099403621      1.78033113766275
| 41>   H          -0.25688043198168     -2.58781524709533      2.84804550261743
| 42>   H           0.13621720309549     -4.63840045296136      1.45679336338085
| 43>   H           0.47845693545340     -4.41898570908193     -1.01941068447818
| 44>   H           0.42158734139616     -2.15197294903211     -2.09451429558552
| 45> **                         ****END OF INPUT****

CARTESIAN COORDINATES (ANGSTROEM)
---------------------------------
  C      5.263755    0.927522    0.238495
  C      3.879316    1.550443    0.443010
  C      2.768744    0.822619   -0.327115
  C      1.378123    1.430968   -0.115812
  P      0.051311    0.549447   -1.112344
  C     -1.471088    1.330929   -0.338917
  C     -2.765883    0.609164   -0.728283
  C     -4.027070    1.254283   -0.137264
  C     -5.315488    0.514924   -0.511044
  C      0.057371   -1.091786   -0.236633
  C     -0.132841   -1.230099    1.155714
  C     -0.105903   -2.495580    1.761006
  C      0.114733   -3.645544    0.981422
  C      0.306159   -3.522322   -0.403956
  C      0.275302   -2.252944   -1.007037
  H      6.046715    1.467804    0.808769
  H      5.279757   -0.132656    0.568411
  H      5.558289    0.943438   -0.832102
  H      3.625825    1.555048    1.527023
  H      3.898095    2.620059    0.134738
  H      2.749274   -0.246717   -0.019079
  H      3.010668    0.818576   -1.413902
  H      1.109931    1.425025    0.964763
  H      1.364710    2.494713   -0.442072
  H     -1.366027    1.372939    0.768692
  H     -1.493397    2.385875   -0.691777
  H     -2.706983   -0.451222   -0.395336
  H     -2.850478    0.571706   -1.837719
  H     -4.089242    2.313802   -0.473580
  H     -3.926804    1.296967    0.970742
  H     -6.210618    0.998412   -0.069336
  H     -5.458691    0.486817   -1.611863
  H     -5.292130   -0.536802   -0.155558
  H     -0.304821   -0.338631    1.780331
  H     -0.256880   -2.587815    2.848046
  H      0.136217   -4.638400    1.456793
  H      0.478457   -4.418986   -1.019411
  H      0.421587   -2.151973   -2.094514

 Total Charge           Charge          ....    0
 Multiplicity           Mult            ....    1
 Number of Electrons    NEL             ....  122
 Basis Dimension        Dim             ....  609

ORBITAL ENERGIES
----------------

  NO   OCC          E(Eh)            E(eV)
   0   2.0000     -78.017661     -2122.9685
   1   2.0000     -10.552241      -287.1411
   2   2.0000     -10.551859      -287.1307
   3   2.0000     -10.551027      -287.1080
   4   2.0000     -10.550209      -287.0858
   5   2.0000     -10.549746      -287.0732
   6   2.0000     -10.549202      -287.0584
   7   2.0000     -10.538205      -286.7591
   8   2.0000     -10.537874      -286.7501
   9   2.0000     -10.533912      -286.6423
  10   2.0000     -10.533438      -286.6294
  11   2.0000     -10.533200      -286.6229
  12   2.0000     -10.532741      -286.6105
  13   2.0000     -10.526045      -286.4282
  14   2.0000     -10.525747      -286.4201
  15   2.0000      -6.833640      -185.9528
  16   2.0000      -4.948104      -134.6447
  17   2.0000      -4.947852      -134.6379
  18   2.0000      -4.947645      -134.6323
  19   2.0000      -0.955426       -25.9985
  20   2.0000      -0.897269       -24.4159
  21   2.0000      -0.889710       -24.2102
  22   2.0000      -0.851229       -23.1631
  23   2.0000      -0.840442       -22.8696
  24   2.0000      -0.821774       -22.3616
  25   2.0000      -0.811009       -22.0687
  26   2.0000      -0.739879       -20.1331
  27   2.0000      -0.702729       -19.1222
  28   2.0000      -0.688519       -18.7356
  29   2.0000      -0.681803       -18.5528
  30   2.0000      -0.658527       -17.9194
  31   2.0000      -0.650687       -17.7061
  32   2.0000      -0.616358       -16.7720
  33   2.0000      -0.575460       -15.6591
  34   2.0000      -0.541101       -14.7241
  35   2.0000      -0.537075       -14.6145
  36   2.0000      -0.517845       -14.0913
  37   2.0000      -0.515410       -14.0250
  38   2.0000      -0.494636       -13.4597
  39   2.0000      -0.493429       -13.4269
  40   2.0000      -0.491628       -13.3779
  41   2.0000      -0.482591       -13.1320
  42   2.0000      -0.476080       -12.9548
  43   2.0000      -0.464037       -12.6271
  44   2.0000      -0.459616       -12.5068
  45   2.0000      -0.441064       -12.0020
  46   2.0000      -0.437363       -11.9012
  47   2.0000      -0.423192       -11.5156
  48   2.0000      -0.416019       -11.3205
  49   2.0000      -0.407510       -11.0889
  50   2.0000      -0.406124       -11.0512
  51   2.0000      -0.403024       -10.9668
  52   2.0000      -0.394590       -10.7373
  53   2.0000      -0.389073       -10.5872
  54   2.0000      -0.380256       -10.3473
  55   2.0000      -0.377650       -10.2764
  56   2.0000      -0.360072        -9.7981
  57   2.0000      -0.347201        -9.4478
  58   2.0000      -0.309782        -8.4296
  59   2.0000      -0.303357        -8.2548
  60   2.0000      -0.279290        -7.5999
  61   0.0000       0.001928         0.0525
  62   0.0000       0.015188         0.4133
  63   0.0000       0.060571         1.6482
  64   0.0000       0.066136         1.7997
  65   0.0000       0.072673         1.9775

MULLIKEN ATOMIC CHARGES
-----------------------
   0 C :   -0.430023
   1 C :   -0.233059
   2 C :   -0.291114
   3 C :   -0.408369
   4 P :    0.191521
   5 C :   -0.422831
   6 C :   -0.288611
   7 C :   -0.232085
   8 C :   -0.429388
   9 C :   -0.113456
  10 C :   -0.150978
  11 C :   -0.171837
  12 C :   -0.131271
  13 C :   -0.155133
  14 C :   -0.095936
  15 H :    0.141196
  16 H :    0.138942
  17 H :    0.136826
  18 H :    0.129658
  19 H :    0.129754
  20 H :    0.161378
  21 H :    0.147872
  22 H :    0.163296
  23 H :    0.159451
  24 H :    0.164233
  25 H :    0.162569
  26 H :    0.161288
  27 H :    0.149512
  28 H :    0.130026
  29 H :    0.128460
  30 H :    0.141239
  31 H :    0.136844
  32 H :    0.138965
  33 H :    0.152052
  34 H :    0.144266
  35 H :    0.145860
  36 H :    0.145282
  37 H :    0.153602
Sum of atomic charges:   -0.0000000

LOEWDIN ATOMIC CHARGES
----------------------
   0 C :   -0.325830
   1 C :   -0.305632
   2 C :   -0.305963
   3 C :   -0.414180
   4 P :    0.601170
   5 C :   -0.416375
   6 C :   -0.305645
   7 C :   -0.305674
   8 C :   -0.325666
   9 C :   -0.285196
  10 C :   -0.142348
  11 C :   -0.144881
  12 C :   -0.141051
  13 C :   -0.142964
  14 C :   -0.146730
  15 H :    0.121452
  16 H :    0.122526
  17 H :    0.122015
  18 H :    0.136445
  19 H :    0.136126
  20 H :    0.144150
  21 H :    0.140139
  22 H :    0.127713
  23 H :    0.135315
  24 H :    0.126351
  25 H :    0.135927
  26 H :    0.143964
  27 H :    0.140454
  28 H :    0.136194
  29 H :    0.136225
  30 H :    0.121476
  31 H :    0.122109
  32 H :    0.122544
  33 H :    0.146176
  34 H :    0.146944
  35 H :    0.146947
  36 H :    0.147344
  37 H :    0.148428

  Mayer bond orders larger than 0.100000
B(  0-C ,  1-C ) :   0.9508 B(  0-C , 15-H ) :   0.9805 B(  0-C , 16-H ) :   0.9742
B(  0-C , 17-H ) :   0.9733 B(  1-C ,  2-C ) :   0.9327 B(  1-C , 18-H ) :   0.9738
B(  1-C , 19-H ) :   0.9753 B(  2-C ,  3-C ) :   0.9107 B(  2-C , 20-H ) :   0.9687
B(  2-C , 21-H ) :   0.9682 B(  3-C ,  4-P ) :   0.9637 B(  3-C , 22-H ) :   0.9699
B(  3-C , 23-H ) :   0.9494 B(  4-P ,  5-C ) :   0.9640 B(  4-P ,  9-C ) :   0.9374
B(  5-C ,  6-C ) :   0.9020 B(  5-C , 24-H ) :   0.9727 B(  5-C , 25-H ) :   0.9505
B(  6-C ,  7-C ) :   0.9299 B(  6-C , 26-H ) :   0.9730 B(  6-C , 27-H ) :   0.9669
B(  7-C ,  8-C ) :   0.9520 B(  7-C , 28-H ) :   0.9750 B(  7-C , 29-H ) :   0.9733
B(  8-C , 30-H ) :   0.9804 B(  8-C , 31-H ) :   0.9733 B(  8-C , 32-H ) :   0.9741
B(  9-C , 10-C ) :   1.2876 B(  9-C , 14-C ) :   1.4023 B( 10-C , 11-C ) :   1.4912
B( 10-C , 33-H ) :   0.9345 B( 11-C , 12-C ) :   1.4274 B( 11-C , 34-H ) :   0.9430
B( 12-C , 13-C ) :   1.4499 B( 12-C , 35-H ) :   0.9462 B( 13-C , 14-C ) :   1.4481
B( 13-C , 36-H ) :   0.9477 B( 14-C , 37-H ) :   0.9269

Dispersion correction           -0.002013905
FINAL SINGLE POINT ENERGY      -888.627159116643

DIPOLE MOMENT
-------------

Method             : SCF
Type of density    : Electron Density
Multiplicity       :   1
Irrep              :   0
Energy             :  -888.6251452120571912 Eh
Relativity type    :
Basis              : AO
                                X                 Y                 Z
Electronic contribution:      0.644113080      -8.855146196      -3.503678813
Nuclear contribution   :     -0.678936480       8.835795967       3.986956641
                        -----------------------------------------
Total Dipole Moment    :     -0.034823400      -0.019350229       0.483277828
                        -----------------------------------------
Magnitude (a.u.)       :      0.484917065
Magnitude (Debye)      :      1.232561226

Rotational constants in cm-1:             0.019954             0.009786             0.007353
Rotational constants in MHz :           598.200890           293.373895           220.423126

                             ****ORCA TERMINATED NORMALLY****
TOTAL RUN TIME: 0 days 0 hours 1 minutes 31 seconds 71 msec
