                         Program Version 6.0.0  -   RELEASE   -
|  1> ! RIJCOSX M062X def2-TZVP D3ZERO NormalSCF
|  2> %pal
|  3> nprocs 6
|  4> end
|  5>
|  6> * xyz 0 1
|  7>   C          -0.79899613031506      2.51178759789286      2.87435345288746
|  8>   O          -1.40416101790341      2.11067112517979      1.63654386447725
|  9>   C          -0.68512326733380      2.39969139366438      0.50389713620939
| 10>   C          -0.86027695356830      3.64090893145265     -0.13708833090112
| 11>   C          -0.18688131469904      3.91304497961188     -1.33685756161197
| 12>   C           0.66178284454112      2.94580513461625     -1.90436779909115
| 13>   C           0.83684848257211      1.70879750608832     -1.26790246002171
| 14>   C           0.17657176692801      1.42677749988420     -0.05683837496488
| 15>   P           0.35203126102234     -0.16593972819212      0.83289468051858
| 16>   O           0.87017703029145     -0.05664084002906      2.26568286840118
| 17>   C          -1.31469385267417     -0.91532678042250      0.79679107799793
| 18>   C          -1.83364540470617     -1.38304064060608      2.01366322914641
| 19>   C          -3.13309825567718     -1.91132726062587      2.08004587449676
| 20>   C          -3.91614755295136     -1.95819743333073      0.91623428196074
| 21>   C          -3.41650007902913     -1.49121234712084     -0.31237955877134
| 22>   C          -2.10808736582282     -0.97181801400546     -0.37603204464665
| 23>   O          -1.51542191416526     -0.51423287670450     -1.51329140436016
| 24>   C          -2.28309660662755     -0.40087398168784     -2.69868337535444
| 25>   C           1.40855859557419     -1.23856056690844     -0.21334263317741
| 26>   C           0.93614529832231     -2.42919720732625     -0.80031423804884
| 27>   C           1.80867376022455     -3.27622028259047     -1.50012174786034
| 28>   C           3.16779097411742     -2.93793102520469     -1.61998242966544
| 29>   C           3.65456483680168     -1.75724089565575     -1.03881511232964
| 30>   C           2.78058576997048     -0.90799436257680     -0.33491794283216
| 31>   O           3.23660066504684      0.27704733725102      0.18505753669419
| 32>   C           3.88018906660989      0.18586915891956      1.46593039573664
| 33>   H          -0.58657265552061      3.60455767333264      2.87929241244457
| 34>   H          -1.53353056637729      2.28002954131231      3.66837152894863
| 35>   H           0.13005413711374      1.92895869759592      3.04749468167269
| 36>   H          -1.54579769576626      4.37264905703979      0.31604020790148
| 37>   H          -0.33099166243046      4.88360453063787     -1.83648650582997
| 38>   H           1.18735192333197      3.15541016771447     -2.84823013316534
| 39>   H           1.48680276137623      0.94621443999607     -1.71941333504710
| 40>   H          -1.19160447938717     -1.30113971250918      2.90464266088931
| 41>   H          -3.53561899543332     -2.27599039002936      3.03657116509487
| 42>   H          -4.93924493246565     -2.36333810064597      0.95604564134000
| 43>   H          -4.04751936190015     -1.53793581374868     -1.21026736995111
| 44>   H          -3.17536871985410      0.24490764651691     -2.54537000115649
| 45>   H          -1.62069948246182      0.06767823852044     -3.44924740220953
| 46>   H          -2.61412656384099     -1.39518594288114     -3.07339528119717
| 47>   H          -0.12454310639064     -2.69901981077928     -0.69444273043591
| 48>   H           1.42718481436083     -4.20433260327922     -1.95163192264767
| 49>   H           3.85448574140537     -3.59709314411900     -2.17327855865166
| 50>   H           4.71184797310785     -1.46696183252538     -1.13139756495265
| 51>   H           4.73798632611891     -0.52245659482185      1.43317044377121
| 52>   H           4.25446297879538      1.20034537851064      1.69804541252582
| 53>   H           3.14105392966901     -0.12554784741154      2.23333126576677
| 54> **                         ****END OF INPUT****

CARTESIAN COORDINATES (ANGSTROEM)
---------------------------------
  C     -0.798996    2.511788    2.874353
  O     -1.404161    2.110671    1.636544
  C     -0.685123    2.399691    0.503897
  C     -0.860277    3.640909   -0.137088
  C     -0.186881    3.913045   -1.336858
  C      0.661783    2.945805   -1.904368
  C      0.836848    1.708798   -1.267902
  C      0.176572    1.426777   -0.056838
  P      0.352031   -0.165940    0.832895
  O      0.870177   -0.056641    2.265683
  C     -1.314694   -0.915327    0.796791
  C     -1.833645   -1.383041    2.013663
  C     -3.133098   -1.911327    2.080046
  C     -3.916148   -1.958197    0.916234
  C     -3.416500   -1.491212   -0.312380
  C     -2.108087   -0.971818   -0.376032
  O     -1.515422   -0.514233   -1.513291
  C     -2.283097   -0.400874   -2.698683
  C      1.408559   -1.238561   -0.213343
  C      0.936145   -2.429197   -0.800314
  C      1.808674   -3.276220   -1.500122
  C      3.167791   -2.937931   -1.619982
  C      3.654565   -1.757241   -1.038815
  C      2.780586   -0.907994   -0.334918
  O      3.236601    0.277047    0.185058
  C      3.880189    0.185869    1.465930
  H     -0.586573    3.604558    2.879292
  H     -1.533531    2.280030    3.668372
  H      0.130054    1.928959    3.047495
  H     -1.545798    4.372649    0.316040
  H     -0.330992    4.883605   -1.836487
  H      1.187352    3.155410   -2.848230
  H      1.486803    0.946214   -1.719413
  H     -1.191604   -1.301140    2.904643
  H     -3.535619   -2.275990    3.036571
  H     -4.939245   -2.363338    0.956046
  H     -4.047519   -1.537936   -1.210267
  H     -3.175369    0.244908   -2.545370
  H     -1.620699    0.067678   -3.449247
  H     -2.614127   -1.395186   -3.073395
  H     -0.124543   -2.699020   -0.694443
  H      1.427185   -4.204333   -1.951632
  H      3.854486   -3.597093   -2.173279
  H      4.711848   -1.466962   -1.131398
  H      4.737986   -0.522457    1.433170
  H      4.254463    1.200345    1.698045
  H      3.141054   -0.125548    2.233331

 Total Charge           Charge          ....    0
 Multiplicity           Mult            ....    1
 Number of Electrons    NEL             ....  194
 Basis Dimension        Dim             ....  938

ORBITAL ENERGIES
----------------

  NO   OCC          E(Eh)            E(eV)
   0   2.0000     -78.097813     -2125.1495
   1   2.0000     -19.667621      -535.1832
   2   2.0000     -19.641563      -534.4741
   3   2.0000     -19.636780      -534.3439
   4   2.0000     -19.562068      -532.3109
   5   2.0000     -10.619504      -288.9714
   6   2.0000     -10.610946      -288.7385
   7   2.0000     -10.605409      -288.5879
   8   2.0000     -10.602219      -288.5010
   9   2.0000     -10.574838      -287.7560
  10   2.0000     -10.572015      -287.6791
  11   2.0000     -10.559147      -287.3290
  12   2.0000     -10.558859      -287.3212
  13   2.0000     -10.557651      -287.2883
  14   2.0000     -10.554847      -287.2120
  15   2.0000     -10.553879      -287.1856
  16   2.0000     -10.552994      -287.1616
  17   2.0000     -10.552714      -287.1540
  18   2.0000     -10.552293      -287.1425
  19   2.0000     -10.552155      -287.1387
  20   2.0000     -10.551251      -287.1141
  21   2.0000     -10.550195      -287.0854
  22   2.0000     -10.549029      -287.0537
  23   2.0000     -10.546734      -286.9912
  24   2.0000     -10.546115      -286.9744
  25   2.0000     -10.544330      -286.9258
  26   2.0000      -6.902913      -187.8378
  27   2.0000      -5.020352      -136.6107
  28   2.0000      -5.020004      -136.6013
  29   2.0000      -5.018332      -136.5558
  30   2.0000      -1.201815       -32.7031
  31   2.0000      -1.174681       -31.9647
  32   2.0000      -1.169981       -31.8368
  33   2.0000      -1.056961       -28.7614
  34   2.0000      -0.959548       -26.1106
  35   2.0000      -0.955910       -26.0116
  36   2.0000      -0.952146       -25.9092
  37   2.0000      -0.869988       -23.6736
  38   2.0000      -0.852982       -23.2108
  39   2.0000      -0.846659       -23.0388
  40   2.0000      -0.844743       -22.9866
  41   2.0000      -0.841796       -22.9064
  42   2.0000      -0.840659       -22.8755
  43   2.0000      -0.790958       -21.5231
  44   2.0000      -0.771194       -20.9852
  45   2.0000      -0.766707       -20.8632
  46   2.0000      -0.731844       -19.9145
  47   2.0000      -0.700711       -19.0673
  48   2.0000      -0.691377       -18.8133
  49   2.0000      -0.678599       -18.4656
  50   2.0000      -0.673726       -18.3330
  51   2.0000      -0.668185       -18.1822
  52   2.0000      -0.635681       -17.2978
  53   2.0000      -0.610944       -16.6246
  54   2.0000      -0.597674       -16.2635
  55   2.0000      -0.586674       -15.9642
  56   2.0000      -0.563904       -15.3446
  57   2.0000      -0.560638       -15.2557
  58   2.0000      -0.557644       -15.1743
  59   2.0000      -0.553288       -15.0557
  60   2.0000      -0.547576       -14.9003
  61   2.0000      -0.545081       -14.8324
  62   2.0000      -0.532688       -14.4952
  63   2.0000      -0.530682       -14.4406
  64   2.0000      -0.525309       -14.2944
  65   2.0000      -0.511704       -13.9242
  66   2.0000      -0.506411       -13.7801
  67   2.0000      -0.501758       -13.6535
  68   2.0000      -0.494113       -13.4455
  69   2.0000      -0.491140       -13.3646
  70   2.0000      -0.489550       -13.3213
  71   2.0000      -0.480323       -13.0702
  72   2.0000      -0.476732       -12.9725
  73   2.0000      -0.458333       -12.4719
  74   2.0000      -0.451536       -12.2869
  75   2.0000      -0.441615       -12.0169
  76   2.0000      -0.436044       -11.8653
  77   2.0000      -0.432203       -11.7608
  78   2.0000      -0.427874       -11.6430
  79   2.0000      -0.425013       -11.5652
  80   2.0000      -0.422206       -11.4888
  81   2.0000      -0.418390       -11.3850
  82   2.0000      -0.415059       -11.2943
  83   2.0000      -0.406983       -11.0746
  84   2.0000      -0.401154       -10.9159
  85   2.0000      -0.397598       -10.8192
  86   2.0000      -0.392977       -10.6934
  87   2.0000      -0.347000        -9.4424
  88   2.0000      -0.343405        -9.3445
  89   2.0000      -0.333504        -9.0751
  90   2.0000      -0.331833        -9.0296
  91   2.0000      -0.315982        -8.5983
  92   2.0000      -0.312053        -8.4914
  93   2.0000      -0.306042        -8.3278
  94   2.0000      -0.297832        -8.1044
  95   2.0000      -0.293740        -7.9931
  96   2.0000      -0.284245        -7.7347
  97   0.0000      -0.007900        -0.2150
  98   0.0000      -0.000633        -0.0172
  99   0.0000       0.010909         0.2968
 100   0.0000       0.014456         0.3934
 101   0.0000       0.023197         0.6312

MULLIKEN ATOMIC CHARGES
-----------------------
   0 C :   -0.259857
   1 O :   -0.330999
   2 C :    0.168239
   3 C :   -0.182896
   4 C :   -0.123751
   5 C :   -0.171393
   6 C :   -0.139769
   7 C :   -0.017274
   8 P :    0.699330
   9 O :   -0.650738
  10 C :   -0.128566
  11 C :   -0.132217
  12 C :   -0.171437
  13 C :   -0.132684
  14 C :   -0.223518
  15 C :    0.235429
  16 O :   -0.293466
  17 C :   -0.313936
  18 C :   -0.048119
  19 C :   -0.107564
  20 C :   -0.183131
  21 C :   -0.121003
  22 C :   -0.178636
  23 C :    0.117475
  24 O :   -0.331846
  25 C :   -0.257114
  26 H :    0.125629
  27 H :    0.139543
  28 H :    0.184744
  29 H :    0.154671
  30 H :    0.145404
  31 H :    0.144749
  32 H :    0.171948
  33 H :    0.193502
  34 H :    0.145674
  35 H :    0.145850
  36 H :    0.166248
  37 H :    0.161919
  38 H :    0.159296
  39 H :    0.150834
  40 H :    0.184030
  41 H :    0.146121
  42 H :    0.146967
  43 H :    0.163046
  44 H :    0.125652
  45 H :    0.139372
  46 H :    0.184240
Sum of atomic charges:   -0.0000000

LOEWDIN ATOMIC CHARGES
----------------------
   0 C :   -0.331693
   1 O :    0.203324
   2 C :   -0.241952
   3 C :   -0.118383
   4 C :   -0.134274
   5 C :   -0.152390
   6 C :   -0.116901
   7 C :   -0.199731
   8 P :    0.718053
   9 O :   -0.315674
  10 C :   -0.209553
  11 C :   -0.111015
  12 C :   -0.154471
  13 C :   -0.130257
  14 C :   -0.143422
  15 C :   -0.243944
  16 O :    0.244255
  17 C :   -0.333789
  18 C :   -0.200641
  19 C :   -0.118016
  20 C :   -0.149311
  21 C :   -0.130614
  22 C :   -0.117731
  23 C :   -0.251906
  24 O :    0.202597
  25 C :   -0.326593
  26 H :    0.105635
  27 H :    0.114550
  28 H :    0.119691
  29 H :    0.153739
  30 H :    0.148097
  31 H :    0.147442
  32 H :    0.159434
  33 H :    0.162864
  34 H :    0.147647
  35 H :    0.149159
  36 H :    0.151355
  37 H :    0.116643
  38 H :    0.122015
  39 H :    0.112685
  40 H :    0.159757
  41 H :    0.148144
  42 H :    0.149155
  43 H :    0.154484
  44 H :    0.105531
  45 H :    0.115256
  46 H :    0.120750

  Mayer bond orders larger than 0.100000
B(  0-C ,  1-O ) :   0.8874 B(  0-C , 26-H ) :   0.9620 B(  0-C , 27-H ) :   0.9750
B(  0-C , 28-H ) :   0.9482 B(  1-O ,  2-C ) :   0.9591 B(  2-C ,  3-C ) :   1.4974
B(  2-C ,  7-C ) :   1.3547 B(  3-C ,  4-C ) :   1.4506 B(  3-C , 29-H ) :   0.9293
B(  4-C ,  5-C ) :   1.4275 B(  4-C , 30-H ) :   0.9460 B(  5-C ,  6-C ) :   1.4547
B(  5-C , 31-H ) :   0.9458 B(  6-C ,  7-C ) :   1.2993 B(  6-C , 32-H ) :   0.9341
B(  7-C ,  8-P ) :   0.8998 B(  8-P ,  9-O ) :   1.7769 B(  8-P , 10-C ) :   0.9594
B(  8-P , 18-C ) :   0.9132 B( 10-C , 11-C ) :   1.4250 B( 10-C , 15-C ) :   1.2686
B( 11-C , 12-C ) :   1.4332 B( 11-C , 33-H ) :   0.9056 B( 12-C , 13-C ) :   1.4615
B( 12-C , 34-H ) :   0.9479 B( 13-C , 14-C ) :   1.4480 B( 13-C , 35-H ) :   0.9421
B( 14-C , 15-C ) :   1.4131 B( 14-C , 36-H ) :   0.9160 B( 15-C , 16-O ) :   1.0544
B( 16-O , 17-C ) :   0.9369 B( 17-C , 37-H ) :   0.9648 B( 17-C , 38-H ) :   0.9714
B( 17-C , 39-H ) :   0.9633 B( 18-C , 19-C ) :   1.3299 B( 18-C , 23-C ) :   1.3187
B( 19-C , 20-C ) :   1.4675 B( 19-C , 40-H ) :   0.9103 B( 20-C , 21-C ) :   1.4390
B( 20-C , 41-H ) :   0.9429 B( 21-C , 22-C ) :   1.4552 B( 21-C , 42-H ) :   0.9463
B( 22-C , 23-C ) :   1.5150 B( 22-C , 43-H ) :   0.9218 B( 23-C , 24-O ) :   0.9531
B( 24-O , 25-C ) :   0.8931 B( 25-C , 44-H ) :   0.9670 B( 25-C , 45-H ) :   0.9733
B( 25-C , 46-H ) :   0.9465

Dispersion correction           -0.004348602
FINAL SINGLE POINT ENERGY     -1455.087339221712

DIPOLE MOMENT
-------------

Method             : SCF
Type of density    : Electron Density
Multiplicity       :   1
Irrep              :   0
Energy             : -1455.0829906201993253 Eh
Relativity type    :
Basis              : AO
                                X                 Y                 Z
Electronic contribution:      0.832044592      -1.978960059       1.393090765
Nuclear contribution   :     -1.353519031       1.760302518      -2.731873575
                        -----------------------------------------
Total Dipole Moment    :     -0.521474439      -0.218657541      -1.338782809
                        -----------------------------------------
Magnitude (a.u.)       :      1.453301800
Magnitude (Debye)      :      3.693999608

Rotational constants in cm-1:             0.007935             0.006659             0.005346
Rotational constants in MHz :           237.878366           199.639779           160.270999

                             ****ORCA TERMINATED NORMALLY****
TOTAL RUN TIME: 0 days 0 hours 4 minutes 19 seconds 479 msec
