                         Program Version 6.0.0  -   RELEASE   -
|  1> ! RI BP86 def2-SVP D3BJ TIGHTSCF Opt
|  2> %pal
|  3> nprocs 6
|  4> end
|  5>
|  6> * xyz 0 1
|  7> C     -5.080952   -1.330850    0.058949
|  8> C     -3.613376   -1.616821   -0.059218
|  9> C     -2.687013   -0.894718    0.708940
| 10> C     -1.300318   -1.113791    0.593832
| 11> C     -0.864858   -2.085351   -0.317177
| 12> C     -1.778426   -2.800439   -1.096815
| 13> C     -3.145457   -2.563036   -0.973536
| 14> P     -0.190215   -0.125440    1.650084
| 15> C     -0.125782    1.500785    0.825537
| 16> C      0.439151    2.574536    1.534419
| 17> C      0.530175    3.846526    0.965314
| 18> C      0.051663    4.070709   -0.323000
| 19> C     -0.529928    3.027058   -1.047702
| 20> C     -0.602624    1.748057   -0.471830
| 21> C     -1.016811    3.251717   -2.448957
| 22> C      1.464639   -0.827374    1.349735
| 23> C      1.877902   -1.903047    2.153926
| 24> C      3.128876   -2.497591    1.975928
| 25> C      3.993906   -2.022704    0.993437
| 26> C      3.618539   -0.943422    0.189035
| 27> C      2.352073   -0.362596    0.366101
| 28> C      4.531245   -0.446565   -0.893160
| 29> H     -5.358636   -0.515882   -0.616505
| 30> H     -5.341397   -1.047004    1.084025
| 31> H     -5.674233   -2.216165   -0.192926
| 32> H     -3.056961   -0.143683    1.406582
| 33> H      0.191715   -2.303227   -0.448138
| 34> H     -1.418143   -3.543984   -1.803233
| 35> H     -3.842065   -3.123362   -1.592664
| 36> H      0.824136    2.427637    2.542115
| 37> H      0.977846    4.660854    1.528874
| 38> H      0.134421    5.064229   -0.757345
| 39> H     -1.033469    0.942731   -1.062695
| 40> H     -1.882645    2.617547   -2.666720
| 41> H     -1.331653    4.290647   -2.592795
| 42> H     -0.219834    3.022336   -3.162903
| 43> H      1.221315   -2.296176    2.928245
| 44> H      3.425536   -3.333258    2.604269
| 45> H      4.962862   -2.498207    0.860634
| 46> H      2.068176    0.460239   -0.286118
| 47> H      5.580057   -0.626504   -0.634685
| 48> H      4.307110   -0.957051   -1.834794
| 49> H      4.413451    0.632640   -1.037064
| 50> **                         ****END OF INPUT****
 Total Charge           Charge          ....    0
 Multiplicity           Mult            ....    1
 Number of Electrons    NEL             ....  162
Dispersion correction           -0.096973191
FINAL SINGLE POINT ENERGY     -1153.678814119336
Dispersion correction             ... done (  0.1 sec)
Dispersion correction           -0.097461832
FINAL SINGLE POINT ENERGY     -1153.685523282154
Dispersion correction             ... done (  0.1 sec)
Dispersion correction           -0.097690885
FINAL SINGLE POINT ENERGY     -1153.686350362134
Dispersion correction             ... done (  0.1 sec)
FINAL SINGLE POINT ENERGY     -1153.686616177771
FINAL SINGLE POINT ENERGY     -1153.686660196074
Dispersion correction             ... done (  0.1 sec)
Dispersion correction           -0.097692061
FINAL SINGLE POINT ENERGY     -1153.686664836574
Dispersion correction             ... done (  0.1 sec)
Dispersion correction           -0.097709049
FINAL SINGLE POINT ENERGY     -1153.686666976202
Dispersion correction             ... done (  0.1 sec)
                    ***********************HURRAY********************

CARTESIAN COORDINATES (ANGSTROEM)
---------------------------------
  C     -5.099044   -1.341877    0.089652
  C     -3.613418   -1.583005   -0.039916
  C     -2.698405   -0.912947    0.795686
  C     -1.304722   -1.088674    0.660125
  C     -0.816217   -1.978619   -0.317835
  C     -1.717961   -2.668359   -1.144243
  C     -3.100807   -2.470692   -1.010652
  P     -0.223568   -0.108803    1.801441
  C     -0.122727    1.498934    0.884025
  C      0.481177    2.585773    1.553332
  C      0.609591    3.823427    0.906919
  C      0.122540    3.993188   -0.399679
  C     -0.493713    2.925430   -1.084434
  C     -0.607169    1.682954   -0.425729
  C     -0.991599    3.089650   -2.501462
  C      1.438637   -0.830798    1.418309
  C      1.820920   -1.983727    2.138321
  C      3.059706   -2.589797    1.884827
  C      3.932118   -2.043370    0.929252
  C      3.576477   -0.886723    0.204847
  C      2.322899   -0.293268    0.462721
  C      4.496070   -0.310175   -0.846111
  H     -5.417946   -0.479207   -0.535059
  H     -5.384856   -1.108890    1.134712
  H     -5.686659   -2.220706   -0.242489
  H     -3.079713   -0.229107    1.573137
  H      0.267553   -2.128493   -0.431530
  H     -1.335871   -3.368460   -1.903689
  H     -3.798320   -3.018523   -1.664479
  H      0.850298    2.456242    2.583443
  H      1.081644    4.669434    1.430372
  H      0.215490    4.972916   -0.895348
  H     -1.081555    0.838287   -0.949217
  H     -1.871232    2.445602   -2.700239
  H     -1.273350    4.139366   -2.717546
  H     -0.206830    2.803580   -3.235327
  H      1.142819   -2.402639    2.899153
  H      3.355778   -3.489232    2.446872
  H      4.909794   -2.517717    0.746693
  H      2.029564    0.609104   -0.096242
  H      5.558549   -0.539870   -0.630845
  H      4.267111   -0.730234   -1.849791
  H      4.386947    0.790024   -0.921976

 Multiplicity           Mult            ....    1
 Number of Electrons    NEL             ....  162
 Basis Dimension        Dim             ....  417

ORBITAL ENERGIES
----------------

  NO   OCC          E(Eh)            E(eV)
   0   2.0000     -76.341534     -2077.3588
   1   2.0000      -9.926029      -270.1010
   2   2.0000      -9.925599      -270.0893
   3   2.0000      -9.925147      -270.0770
   4   2.0000      -9.921493      -269.9776
   5   2.0000      -9.921438      -269.9760
   6   2.0000      -9.921057      -269.9657
   7   2.0000      -9.918684      -269.9011
   8   2.0000      -9.918318      -269.8911
   9   2.0000      -9.918267      -269.8898
  10   2.0000      -9.917712      -269.8747
  11   2.0000      -9.917477      -269.8683
  12   2.0000      -9.917045      -269.8565
  13   2.0000      -9.917010      -269.8556
  14   2.0000      -9.916789      -269.8496
  15   2.0000      -9.916762      -269.8488
  16   2.0000      -9.916654      -269.8459
  17   2.0000      -9.916435      -269.8399
  18   2.0000      -9.916105      -269.8309
  19   2.0000      -9.915719      -269.8204
  20   2.0000      -9.914770      -269.7946
  21   2.0000      -9.914531      -269.7881
  22   2.0000      -6.309780      -171.6979
  23   2.0000      -4.531219      -123.3007
  24   2.0000      -4.531203      -123.3003
  25   2.0000      -4.527645      -123.2035
  26   2.0000      -0.776958       -21.1421
  27   2.0000      -0.769922       -20.9506
  28   2.0000      -0.769670       -20.9438
  29   2.0000      -0.704331       -19.1658
  30   2.0000      -0.693130       -18.8610
  31   2.0000      -0.691287       -18.8109
  32   2.0000      -0.680589       -18.5198
  33   2.0000      -0.664221       -18.0744
  34   2.0000      -0.661189       -17.9919
  35   2.0000      -0.613156       -16.6848
  36   2.0000      -0.612510       -16.6672
  37   2.0000      -0.611229       -16.6324
  38   2.0000      -0.581998       -15.8370
  39   2.0000      -0.540545       -14.7090
  40   2.0000      -0.535716       -14.5776
  41   2.0000      -0.529414       -14.4061
  42   2.0000      -0.519344       -14.1321
  43   2.0000      -0.512747       -13.9525
  44   2.0000      -0.482503       -13.1296
  45   2.0000      -0.453626       -12.3438
  46   2.0000      -0.452433       -12.3113
  47   2.0000      -0.437979       -11.9180
  48   2.0000      -0.416173       -11.3246
  49   2.0000      -0.414813       -11.2876
  50   2.0000      -0.414552       -11.2805
  51   2.0000      -0.392794       -10.6885
  52   2.0000      -0.390438       -10.6244
  53   2.0000      -0.383171       -10.4266
  54   2.0000      -0.375907       -10.2289
  55   2.0000      -0.375217       -10.2102
  56   2.0000      -0.375067       -10.2061
  57   2.0000      -0.365209        -9.9379
  58   2.0000      -0.364213        -9.9107
  59   2.0000      -0.362983        -9.8773
  60   2.0000      -0.359000        -9.7689
  61   2.0000      -0.357793        -9.7360
  62   2.0000      -0.341360        -9.2889
  63   2.0000      -0.340028        -9.2526
  64   2.0000      -0.338548        -9.2124
  65   2.0000      -0.323164        -8.7937
  66   2.0000      -0.317385        -8.6365
  67   2.0000      -0.317198        -8.6314
  68   2.0000      -0.313881        -8.5411
  69   2.0000      -0.301352        -8.2002
  70   2.0000      -0.299917        -8.1612
  71   2.0000      -0.299804        -8.1581
  72   2.0000      -0.280791        -7.6407
  73   2.0000      -0.280345        -7.6286
  74   2.0000      -0.244851        -6.6627
  75   2.0000      -0.232710        -6.3324
  76   2.0000      -0.230083        -6.2609
  77   2.0000      -0.224558        -6.1105
  78   2.0000      -0.220252        -5.9934
  79   2.0000      -0.218131        -5.9356
  80   2.0000      -0.189105        -5.1458
  81   0.0000      -0.053849        -1.4653
  82   0.0000      -0.053822        -1.4646
  83   0.0000      -0.050690        -1.3794
  84   0.0000      -0.039402        -1.0722
  85   0.0000      -0.035428        -0.9640

MULLIKEN ATOMIC CHARGES
-----------------------
   0 C :    0.012182
   1 C :   -0.042882
   2 C :   -0.013571
   3 C :   -0.154171
   4 C :    0.002995
   5 C :    0.006840
   6 C :   -0.020592
   7 P :    0.297856
   8 C :   -0.155188
   9 C :    0.011388
  10 C :    0.002343
  11 C :   -0.024581
  12 C :   -0.038972
  13 C :   -0.018015
  14 C :    0.012380
  15 C :   -0.154526
  16 C :    0.010700
  17 C :    0.002861
  18 C :   -0.023843
  19 C :   -0.038275
  20 C :   -0.016694
  21 C :    0.011471
  22 H :    0.051827
  23 H :    0.037642
  24 H :    0.032598
  25 H :   -0.012261
  26 H :    0.014709
  27 H :   -0.001751
  28 H :   -0.013828
  29 H :    0.000912
  30 H :    0.000907
  31 H :   -0.014205
  32 H :    0.001650
  33 H :    0.038666
  34 H :    0.031602
  35 H :    0.051062
  36 H :    0.000974
  37 H :    0.001006
  38 H :   -0.013925
  39 H :    0.000480
  40 H :    0.031791
  41 H :    0.050989
  42 H :    0.039450
Sum of atomic charges:   -0.0000000

LOEWDIN ATOMIC CHARGES
----------------------
   0 C :   -0.063061
   1 C :   -0.028505
   2 C :   -0.038638
   3 C :   -0.169554
   4 C :   -0.042300
   5 C :   -0.030423
   6 C :   -0.034746
   7 P :    0.499184
   8 C :   -0.169641
   9 C :   -0.041055
  10 C :   -0.030768
  11 C :   -0.034898
  12 C :   -0.028379
  13 C :   -0.039331
  14 C :   -0.063310
  15 C :   -0.170085
  16 C :   -0.041191
  17 C :   -0.030599
  18 C :   -0.034149
  19 C :   -0.028042
  20 C :   -0.038252
  21 C :   -0.063359
  22 H :    0.044082
  23 H :    0.037594
  24 H :    0.035535
  25 H :    0.027221
  26 H :    0.034504
  27 H :    0.032271
  28 H :    0.028714
  29 H :    0.030090
  30 H :    0.032858
  31 H :    0.028667
  32 H :    0.032123
  33 H :    0.037789
  34 H :    0.035161
  35 H :    0.043782
  36 H :    0.030011
  37 H :    0.032926
  38 H :    0.028793
  39 H :    0.031987
  40 H :    0.035267
  41 H :    0.043699
  42 H :    0.038027

  Mayer bond orders larger than 0.100000
B(  0-C ,  1-C ) :   1.0710 B(  0-C , 22-H ) :   0.9468 B(  0-C , 23-H ) :   0.9544
B(  0-C , 24-H ) :   0.9536 B(  1-C ,  2-C ) :   1.3972 B(  1-C ,  6-C ) :   1.3757
B(  2-C ,  3-C ) :   1.3456 B(  2-C , 25-H ) :   0.9706 B(  3-C ,  4-C ) :   1.3825
B(  3-C ,  7-P ) :   0.9321 B(  4-C ,  5-C ) :   1.3709 B(  4-C , 26-H ) :   0.9675
B(  5-C ,  6-C ) :   1.3712 B(  5-C , 27-H ) :   0.9731 B(  6-C , 28-H ) :   0.9750
B(  7-P ,  8-C ) :   0.9327 B(  7-P , 15-C ) :   0.9331 B(  8-C ,  9-C ) :   1.3583
B(  8-C , 13-C ) :   1.3682 B(  9-C , 10-C ) :   1.3954 B(  9-C , 29-H ) :   0.9726
B( 10-C , 11-C ) :   1.3655 B( 10-C , 30-H ) :   0.9739 B( 11-C , 12-C ) :   1.3839
B( 11-C , 31-H ) :   0.9745 B( 12-C , 13-C ) :   1.3671 B( 12-C , 14-C ) :   1.0727
B( 13-C , 32-H ) :   0.9692 B( 14-C , 33-H ) :   0.9538 B( 14-C , 34-H ) :   0.9530
B( 14-C , 35-H ) :   0.9469 B( 15-C , 16-C ) :   1.3591 B( 15-C , 20-C ) :   1.3677
B( 16-C , 17-C ) :   1.3942 B( 16-C , 36-H ) :   0.9726 B( 17-C , 18-C ) :   1.3667
B( 17-C , 37-H ) :   0.9739 B( 18-C , 19-C ) :   1.3836 B( 18-C , 38-H ) :   0.9744
B( 19-C , 20-C ) :   1.3677 B( 19-C , 21-C ) :   1.0726 B( 20-C , 39-H ) :   0.9694
B( 21-C , 40-H ) :   0.9531 B( 21-C , 41-H ) :   0.9470 B( 21-C , 42-H ) :   0.9539

Dispersion correction           -0.097714995
FINAL SINGLE POINT ENERGY     -1153.686667498578

DIPOLE MOMENT
-------------

Method             : SCF
Type of density    : Electron Density
Multiplicity       :   1
Irrep              :   0
Energy             : -1153.5889525037944168 Eh
Relativity type    :
Basis              : AO
                                X                 Y                 Z
Electronic contribution:      1.310014886      -2.551749619      12.559172697
Nuclear contribution   :     -1.270892615       2.638050320     -13.363307850
                        -----------------------------------------
Total Dipole Moment    :      0.039122272       0.086300701      -0.804135153
                        -----------------------------------------
Magnitude (a.u.)       :      0.809698529
Magnitude (Debye)      :      2.058090101

Rotational constants in cm-1:             0.009530             0.007476             0.005198
Rotational constants in MHz :           285.716501           224.123198           155.823870

                             ****ORCA TERMINATED NORMALLY****
TOTAL RUN TIME: 0 days 0 hours 2 minutes 45 seconds 654 msec
