                         Program Version 6.0.0  -   RELEASE   -
|  1> ! RIJCOSX M062X def2-TZVP D3ZERO NormalSCF
|  2> %pal
|  3> nprocs 6
|  4> end
|  5>
|  6> * xyz 0 1
|  7>   C           0.74948959543506     -2.27525898035753      1.69658070329841
|  8>   C          -0.11078066680139     -1.73836571056488      0.52945165047704
|  9>   C          -1.55803316229346     -2.19319286318913      0.81463266274594
| 10>   C           0.35327339955579     -2.32829868884399     -0.81324815154462
| 11>   P          -0.03316377753842      0.18202693537379      0.63991622187515
| 12>   O          -0.11035223631425      0.59696712920306      2.11043616754914
| 13>   C           1.62447798121601      0.81908923967473     -0.09888971961816
| 14>   C           2.77479167015178     -0.05066941072629      0.45236688082746
| 15>   C           1.84058472979402      2.23780917944795      0.47748148024854
| 16>   C           1.68520517493302      0.83567204960097     -1.63557703233698
| 17>   C          -1.51961338765564      0.95595858505852     -0.30364057488665
| 18>   C          -1.81465485694676      0.32603000992627     -1.67529811072951
| 19>   C          -1.26173559925139      2.46807299562709     -0.47628323477187
| 20>   C          -2.74094784129134      0.83225835690425      0.63730308245034
| 21>   H           0.52075941500542     -3.35145950408579      1.84791270600588
| 22>   H           1.83367622113442     -2.18960738959942      1.50922870212478
| 23>   H           0.51328050768423     -1.72422679725792      2.62778480501780
| 24>   H          -1.56598224524460     -3.29888686672772      0.92187337050265
| 25>   H          -1.93754976935017     -1.76046051935143      1.76052311767434
| 26>   H          -2.25992375305243     -1.93928316365583     -0.00151648466432
| 27>   H           0.23402099317395     -3.43324505022412     -0.78721504398919
| 28>   H           1.42134009082132     -2.12406562445984     -1.01877171388914
| 29>   H          -0.24012219125461     -1.95405294617774     -1.66965024775655
| 30>   H           3.74038776066873      0.42562898048319      0.17916119770072
| 31>   H           2.73207285027355     -0.11866632753858      1.55666297162906
| 32>   H           2.78406608823881     -1.07320765503688      0.03104555454603
| 33>   H           1.20300601644733      3.00068259933506     -0.00159174842404
| 34>   H           2.89786770117532      2.53591115188872      0.31389281105213
| 35>   H           1.63119358214139      2.24289617554208      1.56502288110469
| 36>   H           2.69069892629706      1.18320951459378     -1.95803717438355
| 37>   H           1.52683974788286     -0.16617825761035     -2.07867563372115
| 38>   H           0.94639276818031      1.52870889251417     -2.08127767781228
| 39>   H          -2.10249753790256     -0.73994110805120     -1.59914380962042
| 40>   H          -0.95733094823147      0.40065114666289     -2.37177536419513
| 41>   H          -2.66884076746348      0.85908242171249     -2.14667072193572
| 42>   H          -2.19444929800503      2.94589525362440     -0.84466826129672
| 43>   H          -0.99877856814266      2.94261027626543      0.48885323124386
| 44>   H          -0.46791044810563      2.69171685130036     -1.21346207477010
| 45>   H          -3.55122725846618      1.49369556986609      0.26397387470518
| 46>   H          -2.46364033277084      1.14745348621277      1.66206276420802
| 47>   H          -3.14589157412806     -0.19296293735942      0.68922694335894
| 48> **                         ****END OF INPUT****

CARTESIAN COORDINATES (ANGSTROEM)
---------------------------------
  C      0.749490   -2.275259    1.696581
  C     -0.110781   -1.738366    0.529452
  C     -1.558033   -2.193193    0.814633
  C      0.353273   -2.328299   -0.813248
  P     -0.033164    0.182027    0.639916
  O     -0.110352    0.596967    2.110436
  C      1.624478    0.819089   -0.098890
  C      2.774792   -0.050669    0.452367
  C      1.840585    2.237809    0.477481
  C      1.685205    0.835672   -1.635577
  C     -1.519613    0.955959   -0.303641
  C     -1.814655    0.326030   -1.675298
  C     -1.261736    2.468073   -0.476283
  C     -2.740948    0.832258    0.637303
  H      0.520759   -3.351460    1.847913
  H      1.833676   -2.189607    1.509229
  H      0.513281   -1.724227    2.627785
  H     -1.565982   -3.298887    0.921873
  H     -1.937550   -1.760461    1.760523
  H     -2.259924   -1.939283   -0.001516
  H      0.234021   -3.433245   -0.787215
  H      1.421340   -2.124066   -1.018772
  H     -0.240122   -1.954053   -1.669650
  H      3.740388    0.425629    0.179161
  H      2.732073   -0.118666    1.556663
  H      2.784066   -1.073208    0.031046
  H      1.203006    3.000683   -0.001592
  H      2.897868    2.535911    0.313893
  H      1.631194    2.242896    1.565023
  H      2.690699    1.183210   -1.958037
  H      1.526840   -0.166178   -2.078676
  H      0.946393    1.528709   -2.081278
  H     -2.102498   -0.739941   -1.599144
  H     -0.957331    0.400651   -2.371775
  H     -2.668841    0.859082   -2.146671
  H     -2.194449    2.945895   -0.844668
  H     -0.998779    2.942610    0.488853
  H     -0.467910    2.691717   -1.213462
  H     -3.551227    1.493696    0.263974
  H     -2.463640    1.147453    1.662063
  H     -3.145892   -0.192963    0.689227

 Total Charge           Charge          ....    0
 Multiplicity           Mult            ....    1
 Number of Electrons    NEL             ....  122
 Basis Dimension        Dim             ....  602

ORBITAL ENERGIES
----------------

  NO   OCC          E(Eh)            E(eV)
   0   2.0000     -78.082107     -2124.7222
   1   2.0000     -19.553431      -532.0759
   2   2.0000     -10.565986      -287.5151
   3   2.0000     -10.565959      -287.5144
   4   2.0000     -10.565950      -287.5141
   5   2.0000     -10.542136      -286.8661
   6   2.0000     -10.542132      -286.8660
   7   2.0000     -10.542060      -286.8640
   8   2.0000     -10.536478      -286.7121
   9   2.0000     -10.536414      -286.7104
  10   2.0000     -10.536404      -286.7101
  11   2.0000     -10.526654      -286.4448
  12   2.0000     -10.526624      -286.4440
  13   2.0000     -10.526592      -286.4431
  14   2.0000      -6.888556      -187.4471
  15   2.0000      -5.005048      -136.1943
  16   2.0000      -5.005039      -136.1940
  17   2.0000      -5.003833      -136.1612
  18   2.0000      -1.048240       -28.5240
  19   2.0000      -0.923678       -25.1346
  20   2.0000      -0.906935       -24.6790
  21   2.0000      -0.906900       -24.6780
  22   2.0000      -0.789584       -21.4857
  23   2.0000      -0.783668       -21.3247
  24   2.0000      -0.783629       -21.3236
  25   2.0000      -0.775682       -21.1074
  26   2.0000      -0.775639       -21.1062
  27   2.0000      -0.762990       -20.7620
  28   2.0000      -0.709179       -19.2978
  29   2.0000      -0.631290       -17.1783
  30   2.0000      -0.631159       -17.1747
  31   2.0000      -0.587014       -15.9735
  32   2.0000      -0.541401       -14.7323
  33   2.0000      -0.541292       -14.7293
  34   2.0000      -0.519592       -14.1388
  35   2.0000      -0.518993       -14.1225
  36   2.0000      -0.518853       -14.1187
  37   2.0000      -0.501009       -13.6331
  38   2.0000      -0.495593       -13.4858
  39   2.0000      -0.495393       -13.4803
  40   2.0000      -0.483526       -13.1574
  41   2.0000      -0.464626       -12.6431
  42   2.0000      -0.459288       -12.4979
  43   2.0000      -0.459080       -12.4922
  44   2.0000      -0.448945       -12.2164
  45   2.0000      -0.448884       -12.2147
  46   2.0000      -0.437437       -11.9033
  47   2.0000      -0.432781       -11.7766
  48   2.0000      -0.427668       -11.6374
  49   2.0000      -0.427517       -11.6333
  50   2.0000      -0.417368       -11.3572
  51   2.0000      -0.409079       -11.1316
  52   2.0000      -0.408838       -11.1250
  53   2.0000      -0.392686       -10.6855
  54   2.0000      -0.392552       -10.6819
  55   2.0000      -0.386235       -10.5100
  56   2.0000      -0.374090       -10.1795
  57   2.0000      -0.372605       -10.1391
  58   2.0000      -0.372556       -10.1378
  59   2.0000      -0.306557        -8.3418
  60   2.0000      -0.306447        -8.3389
  61   0.0000       0.054815         1.4916
  62   0.0000       0.069083         1.8798
  63   0.0000       0.082286         2.2391
  64   0.0000       0.082447         2.2435
  65   0.0000       0.087036         2.3684

MULLIKEN ATOMIC CHARGES
-----------------------
   0 C :   -0.464856
   1 C :   -0.038156
   2 C :   -0.519636
   3 C :   -0.461511
   4 P :    0.599914
   5 O :   -0.608743
   6 C :   -0.036250
   7 C :   -0.518621
   8 C :   -0.465980
   9 C :   -0.462191
  10 C :   -0.035685
  11 C :   -0.460344
  12 C :   -0.522348
  13 C :   -0.463993
  14 H :    0.141991
  15 H :    0.154434
  16 H :    0.207181
  17 H :    0.157212
  18 H :    0.204476
  19 H :    0.143590
  20 H :    0.160170
  21 H :    0.144820
  22 H :    0.171834
  23 H :    0.156685
  24 H :    0.205648
  25 H :    0.143105
  26 H :    0.154534
  27 H :    0.141887
  28 H :    0.207325
  29 H :    0.160161
  30 H :    0.172121
  31 H :    0.145270
  32 H :    0.144237
  33 H :    0.171817
  34 H :    0.159995
  35 H :    0.157544
  36 H :    0.205454
  37 H :    0.143872
  38 H :    0.141542
  39 H :    0.206719
  40 H :    0.154777
Sum of atomic charges:   -0.0000000

LOEWDIN ATOMIC CHARGES
----------------------
   0 C :   -0.291030
   1 C :   -0.409036
   2 C :   -0.293110
   3 C :   -0.294612
   4 P :    0.736433
   5 O :   -0.335115
   6 C :   -0.409402
   7 C :   -0.292767
   8 C :   -0.290903
   9 C :   -0.294542
  10 C :   -0.409470
  11 C :   -0.294608
  12 C :   -0.292876
  13 C :   -0.290782
  14 H :    0.127046
  15 H :    0.122959
  16 H :    0.140831
  17 H :    0.129609
  18 H :    0.136880
  19 H :    0.117641
  20 H :    0.133008
  21 H :    0.120650
  22 H :    0.125117
  23 H :    0.129544
  24 H :    0.137136
  25 H :    0.117627
  26 H :    0.122919
  27 H :    0.127015
  28 H :    0.140801
  29 H :    0.133082
  30 H :    0.125161
  31 H :    0.120749
  32 H :    0.120638
  33 H :    0.125150
  34 H :    0.133063
  35 H :    0.129686
  36 H :    0.137049
  37 H :    0.117715
  38 H :    0.126885
  39 H :    0.140844
  40 H :    0.123016

  Mayer bond orders larger than 0.100000
B(  0-C ,  1-C ) :   0.9608 B(  0-C , 14-H ) :   0.9601 B(  0-C , 15-H ) :   0.9624
B(  0-C , 16-H ) :   0.9512 B(  1-C ,  2-C ) :   0.9162 B(  1-C ,  3-C ) :   0.9229
B(  1-C ,  4-P ) :   0.8387 B(  2-C , 17-H ) :   0.9621 B(  2-C , 18-H ) :   0.9621
B(  2-C , 19-H ) :   0.9663 B(  3-C , 20-H ) :   0.9563 B(  3-C , 21-H ) :   0.9657
B(  3-C , 22-H ) :   0.9666 B(  4-P ,  5-O ) :   1.8623 B(  4-P ,  6-C ) :   0.8386
B(  4-P , 10-C ) :   0.8379 B(  6-C ,  7-C ) :   0.9168 B(  6-C ,  8-C ) :   0.9601
B(  6-C ,  9-C ) :   0.9236 B(  7-C , 23-H ) :   0.9619 B(  7-C , 24-H ) :   0.9613
B(  7-C , 25-H ) :   0.9661 B(  8-C , 26-H ) :   0.9622 B(  8-C , 27-H ) :   0.9599
B(  8-C , 28-H ) :   0.9515 B(  9-C , 29-H ) :   0.9561 B(  9-C , 30-H ) :   0.9665
B(  9-C , 31-H ) :   0.9654 B( 10-C , 11-C ) :   0.9238 B( 10-C , 12-C ) :   0.9148
B( 10-C , 13-C ) :   0.9612 B( 11-C , 32-H ) :   0.9654 B( 11-C , 33-H ) :   0.9671
B( 11-C , 34-H ) :   0.9560 B( 12-C , 35-H ) :   0.9621 B( 12-C , 36-H ) :   0.9615
B( 12-C , 37-H ) :   0.9664 B( 13-C , 38-H ) :   0.9603 B( 13-C , 39-H ) :   0.9513
B( 13-C , 40-H ) :   0.9622

Dispersion correction           -0.002966691
FINAL SINGLE POINT ENERGY      -890.082408357874

DIPOLE MOMENT
-------------

Method             : SCF
Type of density    : Electron Density
Multiplicity       :   1
Irrep              :   0
Energy             :  -890.0794416671519684 Eh
Relativity type    :
Basis              : AO
                                X                 Y                 Z
Electronic contribution:     -0.337246412       1.862572690       6.555111666
Nuclear contribution   :      0.411352744      -2.257174890      -7.954360463
                        -----------------------------------------
Total Dipole Moment    :      0.074106331      -0.394602201      -1.399248798
                        -----------------------------------------
Magnitude (a.u.)       :      1.455712830
Magnitude (Debye)      :      3.700127959

Rotational constants in cm-1:             0.021754             0.021743             0.015855
Rotational constants in MHz :           652.170313           651.825823           475.333122

                             ****ORCA TERMINATED NORMALLY****
TOTAL RUN TIME: 0 days 0 hours 1 minutes 49 seconds 29 msec
