                         Program Version 6.0.0  -   RELEASE   -
|  1> ! RIJCOSX M062X def2-TZVP D3ZERO NormalSCF
|  2> %pal
|  3> nprocs 6
|  4> end
|  5>
|  6> * xyz 0 1
|  7>   C           3.58598106799617      1.02705810422236      1.05556276993785
|  8>   C           3.14232883817291      0.88877573262301     -0.27148555943337
|  9>   C           1.85417489591567      0.40036139598367     -0.53194804006585
| 10>   C           1.01015180175374      0.04672557647092      0.54060105434631
| 11>   C           1.45655984366698      0.17999030031260      1.86949880753437
| 12>   C           2.74585983907446      0.67129670393026      2.12356411419904
| 13>   P          -0.70060053510688     -0.53087512268394      0.30323685838028
| 14>   O          -1.43417773903856     -0.81447942577476      1.60571011223176
| 15>   C          -0.58359614374807     -2.04261925971030     -0.76426890865790
| 16>   C          -1.87848385656139     -2.87853204908656     -0.66860713869014
| 17>   C          -3.00164407575772     -2.27364610007568     -1.38744341277028
| 18>   N          -3.87172578410302     -1.74162120756341     -1.96400053974958
| 19>   C          -1.54227904515100      0.76816276054866     -0.70811347514341
| 20>   C          -1.85176446878927      2.00078471514084      0.16825336420293
| 21>   C          -0.67903482697152      2.83217161373129      0.45633780009710
| 22>   N           0.26048521629367      3.49841426919554      0.66847126622234
| 23>   H           4.59336277239720      1.42212930962777      1.25691721436794
| 24>   H           3.80061731995097      1.17360154256498     -1.10609363844884
| 25>   H           1.50884004294462      0.30916303251404     -1.57446279294406
| 26>   H           0.76979039900321     -0.09238717952872      2.68576750142724
| 27>   H           3.09360622267976      0.78708711162309      3.16129638675575
| 28>   H           0.25956222695548     -2.63340159250976     -0.35243035693996
| 29>   H          -0.33066024396076     -1.77885524550956     -1.81155567442230
| 30>   H          -1.71337495927338     -3.90121437837814     -1.06768433234879
| 31>   H          -2.16134707695476     -2.97166540475777      0.40270517763372
| 32>   H          -2.49457773815980      0.32735381661788     -1.06537035769647
| 33>   H          -0.93536885860168      1.03377525956432     -1.59762906801447
| 34>   H          -2.61358736901377      2.63877125411545     -0.32683233667087
| 35>   H          -2.28909976561325      1.65367446679192      1.12985620465967
| 36> **                         ****END OF INPUT****

CARTESIAN COORDINATES (ANGSTROEM)
---------------------------------
  C      3.585981    1.027058    1.055563
  C      3.142329    0.888776   -0.271486
  C      1.854175    0.400361   -0.531948
  C      1.010152    0.046726    0.540601
  C      1.456560    0.179990    1.869499
  C      2.745860    0.671297    2.123564
  P     -0.700601   -0.530875    0.303237
  O     -1.434178   -0.814479    1.605710
  C     -0.583596   -2.042619   -0.764269
  C     -1.878484   -2.878532   -0.668607
  C     -3.001644   -2.273646   -1.387443
  N     -3.871726   -1.741621   -1.964001
  C     -1.542279    0.768163   -0.708113
  C     -1.851764    2.000785    0.168253
  C     -0.679035    2.832172    0.456338
  N      0.260485    3.498414    0.668471
  H      4.593363    1.422129    1.256917
  H      3.800617    1.173602   -1.106094
  H      1.508840    0.309163   -1.574463
  H      0.769790   -0.092387    2.685768
  H      3.093606    0.787087    3.161296
  H      0.259562   -2.633402   -0.352430
  H     -0.330660   -1.778855   -1.811556
  H     -1.713375   -3.901214   -1.067684
  H     -2.161347   -2.971665    0.402705
  H     -2.494578    0.327354   -1.065370
  H     -0.935369    1.033775   -1.597629
  H     -2.613587    2.638771   -0.326832
  H     -2.289100    1.653674    1.129856

 Total Charge           Charge          ....    0
 Multiplicity           Mult            ....    1
 Number of Electrons    NEL             ....  122
 Basis Dimension        Dim             ....  580

ORBITAL ENERGIES
----------------

  NO   OCC          E(Eh)            E(eV)
   0   2.0000     -78.113808     -2125.5848
   1   2.0000     -19.584325      -532.9166
   2   2.0000     -14.772132      -401.9701
   3   2.0000     -14.758784      -401.6069
   4   2.0000     -10.609889      -288.7098
   5   2.0000     -10.601836      -288.4906
   6   2.0000     -10.596140      -288.3356
   7   2.0000     -10.588456      -288.1265
   8   2.0000     -10.582919      -287.9759
   9   2.0000     -10.579732      -287.8891
  10   2.0000     -10.574461      -287.7457
  11   2.0000     -10.569873      -287.6209
  12   2.0000     -10.566925      -287.5407
  13   2.0000     -10.565974      -287.5148
  14   2.0000     -10.565863      -287.5117
  15   2.0000     -10.562990      -287.4336
  16   2.0000      -6.920610      -188.3194
  17   2.0000      -5.037695      -137.0826
  18   2.0000      -5.037416      -137.0751
  19   2.0000      -5.035998      -137.0365
  20   2.0000      -1.081806       -29.4374
  21   2.0000      -1.024469       -27.8772
  22   2.0000      -1.010722       -27.5032
  23   2.0000      -0.972819       -26.4718
  24   2.0000      -0.925902       -25.1951
  25   2.0000      -0.913264       -24.8512
  26   2.0000      -0.864058       -23.5122
  27   2.0000      -0.857315       -23.3287
  28   2.0000      -0.802920       -21.8486
  29   2.0000      -0.767922       -20.8962
  30   2.0000      -0.710428       -19.3317
  31   2.0000      -0.702026       -19.1031
  32   2.0000      -0.644711       -17.5435
  33   2.0000      -0.608574       -16.5601
  34   2.0000      -0.600399       -16.3377
  35   2.0000      -0.597038       -16.2462
  36   2.0000      -0.574007       -15.6195
  37   2.0000      -0.554226       -15.0813
  38   2.0000      -0.535426       -14.5697
  39   2.0000      -0.530024       -14.4227
  40   2.0000      -0.526837       -14.3360
  41   2.0000      -0.510719       -13.8974
  42   2.0000      -0.503545       -13.7022
  43   2.0000      -0.495720       -13.4892
  44   2.0000      -0.484935       -13.1958
  45   2.0000      -0.474020       -12.8987
  46   2.0000      -0.463054       -12.6003
  47   2.0000      -0.453061       -12.3284
  48   2.0000      -0.445165       -12.1135
  49   2.0000      -0.441769       -12.0211
  50   2.0000      -0.440410       -11.9842
  51   2.0000      -0.419899       -11.4260
  52   2.0000      -0.417348       -11.3566
  53   2.0000      -0.404041       -10.9945
  54   2.0000      -0.401958       -10.9378
  55   2.0000      -0.391762       -10.6604
  56   2.0000      -0.390510       -10.6263
  57   2.0000      -0.354865        -9.6564
  58   2.0000      -0.351858        -9.5745
  59   2.0000      -0.324518        -8.8306
  60   2.0000      -0.323981        -8.8160
  61   0.0000      -0.017841        -0.4855
  62   0.0000       0.000120         0.0033
  63   0.0000       0.028799         0.7837
  64   0.0000       0.039193         1.0665
  65   0.0000       0.049441         1.3453

MULLIKEN ATOMIC CHARGES
-----------------------
   0 C :   -0.118996
   1 C :   -0.143400
   2 C :   -0.173670
   3 C :   -0.112650
   4 C :   -0.120606
   5 C :   -0.129654
   6 P :    0.611208
   7 O :   -0.598733
   8 C :   -0.409221
   9 C :   -0.212380
  10 C :   -0.159201
  11 N :   -0.028707
  12 C :   -0.397463
  13 C :   -0.239647
  14 C :   -0.164777
  15 N :   -0.010030
  16 H :    0.151342
  17 H :    0.149527
  18 H :    0.156754
  19 H :    0.195235
  20 H :    0.152298
  21 H :    0.196209
  22 H :    0.194147
  23 H :    0.185261
  24 H :    0.221586
  25 H :    0.202612
  26 H :    0.191361
  27 H :    0.189848
  28 H :    0.221747
Sum of atomic charges:   -0.0000000

LOEWDIN ATOMIC CHARGES
----------------------
   0 C :   -0.119468
   1 C :   -0.131246
   2 C :   -0.134834
   3 C :   -0.249599
   4 C :   -0.113734
   5 C :   -0.126384
   6 P :    0.617532
   7 O :   -0.314977
   8 C :   -0.341494
   9 C :   -0.259993
  10 C :   -0.199389
  11 N :    0.044235
  12 C :   -0.340424
  13 C :   -0.257374
  14 C :   -0.198451
  15 N :    0.052696
  16 H :    0.150719
  17 H :    0.150423
  18 H :    0.147633
  19 H :    0.162009
  20 H :    0.151301
  21 H :    0.155513
  22 H :    0.147815
  23 H :    0.169350
  24 H :    0.181628
  25 H :    0.157965
  26 H :    0.147508
  27 H :    0.171279
  28 H :    0.179761

  Mayer bond orders larger than 0.100000
B(  0-C ,  1-C ) :   1.4370 B(  0-C ,  5-C ) :   1.4401 B(  0-C , 16-H ) :   0.9426
B(  1-C ,  2-C ) :   1.5047 B(  1-C , 17-H ) :   0.9421 B(  2-C ,  3-C ) :   1.3460
B(  2-C , 18-H ) :   0.9223 B(  3-C ,  4-C ) :   1.3927 B(  3-C ,  6-P ) :   0.9293
B(  4-C ,  5-C ) :   1.4330 B(  4-C , 19-H ) :   0.9120 B(  5-C , 20-H ) :   0.9446
B(  6-P ,  7-O ) :   1.9204 B(  6-P ,  8-C ) :   0.8957 B(  6-P , 12-C ) :   0.9161
B(  8-C ,  9-C ) :   0.9076 B(  8-C , 21-H ) :   0.9497 B(  8-C , 22-H ) :   0.9333
B(  9-C , 10-C ) :   0.9441 B(  9-C , 23-H ) :   0.9461 B(  9-C , 24-H ) :   0.9462
B( 10-C , 11-N ) :   2.9886 B( 12-C , 13-C ) :   0.9112 B( 12-C , 25-H ) :   0.9361
B( 12-C , 26-H ) :   0.9282 B( 13-C , 14-C ) :   0.9465 B( 13-C , 27-H ) :   0.9502
B( 13-C , 28-H ) :   0.9462 B( 14-C , 15-N ) :   3.0280

Dispersion correction           -0.001642249
FINAL SINGLE POINT ENERGY      -991.167875466766

DIPOLE MOMENT
-------------

Method             : SCF
Type of density    : Electron Density
Multiplicity       :   1
Irrep              :   0
Energy             :  -991.1662332179998884 Eh
Relativity type    :
Basis              : AO
                                X                 Y                 Z
Electronic contribution:     -2.850615357       1.034337651       1.671338780
Nuclear contribution   :      4.058004315      -2.046572338      -2.419255722
                        -----------------------------------------
Total Dipole Moment    :      1.207388958      -1.012234687      -0.747916942
                        -----------------------------------------
Magnitude (a.u.)       :      1.744071934
Magnitude (Debye)      :      4.433078553

Rotational constants in cm-1:             0.026725             0.011153             0.009412
Rotational constants in MHz :           801.189327           334.369320           282.176258

                             ****ORCA TERMINATED NORMALLY****
TOTAL RUN TIME: 0 days 0 hours 1 minutes 15 seconds 813 msec
