                         Program Version 6.0.0  -   RELEASE   -
|  1> ! RI BP86 def2-SVP D3BJ TIGHTSCF Opt
|  2> %pal
|  3> nprocs 6
|  4> end
|  5>
|  6> * xyz 0 1
|  7> C     -0.819809    4.828366    2.039791
|  8> C     -0.064777    3.508943    2.067416
|  9> C     -0.366296    2.664094    0.828128
| 10> C      0.397212    1.339551    0.866723
| 11> P      0.107513    0.315772   -0.651226
| 12> C      1.128925   -1.173937   -0.234451
| 13> C      2.625863   -0.922065   -0.420424
| 14> C      3.437185   -2.184134   -0.121331
| 15> C      4.927682   -1.944589   -0.302309
| 16> C     -1.585643   -0.340399   -0.278557
| 17> C     -2.100441   -1.274663   -1.374451
| 18> C     -3.519239   -1.756069   -1.064969
| 19> C     -4.040812   -2.686798   -2.148213
| 20> H     -0.541355    5.421406    1.162817
| 21> H     -0.589394    5.415670    2.934153
| 22> H     -1.901285    4.661043    2.012565
| 23> H     -0.342059    2.955004    2.971853
| 24> H      1.010824    3.711901    2.127475
| 25> H     -0.093184    3.229828   -0.071961
| 26> H     -1.446196    2.482016    0.772495
| 27> H      0.117873    0.768407    1.759188
| 28> H      1.469317    1.551663    0.940045
| 29> H      0.824477   -1.995546   -0.891754
| 30> H      0.923921   -1.489092    0.794811
| 31> H      2.827736   -0.596149   -1.448934
| 32> H      2.963110   -0.114248    0.239975
| 33> H      3.248251   -2.512883    0.907244
| 34> H      3.120815   -2.996749   -0.785622
| 35> H      5.154818   -1.644564   -1.330275
| 36> H      5.487803   -2.859124   -0.083704
| 37> H      5.283502   -1.158957    0.371859
| 38> H     -1.579375   -0.858261    0.687107
| 39> H     -2.271814    0.508430   -0.186716
| 40> H     -1.440994   -2.144782   -1.476696
| 41> H     -2.095792   -0.757579   -2.342649
| 42> H     -4.193291   -0.896241   -0.975160
| 43> H     -3.532379   -2.281310   -0.102842
| 44> H     -3.406807   -3.574287   -2.241638
| 45> H     -4.070294   -2.181461   -3.118823
| 46> H     -5.055595   -3.018209   -1.906796
| 47> **                         ****END OF INPUT****
 Total Charge           Charge          ....    0
 Multiplicity           Mult            ....    1
 Number of Electrons    NEL             ....  114
Dispersion correction           -0.059425525
FINAL SINGLE POINT ENERGY      -814.525141658020
Dispersion correction             ... done (  0.1 sec)
Dispersion correction           -0.058728588
FINAL SINGLE POINT ENERGY      -814.531881846373
Dispersion correction             ... done (  0.1 sec)
Dispersion correction           -0.058586690
FINAL SINGLE POINT ENERGY      -814.532391555777
Dispersion correction             ... done (  0.1 sec)
FINAL SINGLE POINT ENERGY      -814.532538067469
FINAL SINGLE POINT ENERGY      -814.532563809550
Dispersion correction             ... done (  0.1 sec)
Dispersion correction           -0.058547461
FINAL SINGLE POINT ENERGY      -814.532568850501
Dispersion correction             ... done (  0.1 sec)
Dispersion correction           -0.058549909
FINAL SINGLE POINT ENERGY      -814.532570539331
Dispersion correction             ... done (  0.1 sec)
                    ***********************HURRAY********************

CARTESIAN COORDINATES (ANGSTROEM)
---------------------------------
  C     -0.827460    4.888101    2.096582
  C     -0.065398    3.559695    2.089164
  C     -0.361024    2.696029    0.854769
  C      0.393919    1.361056    0.849839
  P      0.111076    0.345202   -0.703375
  C      1.138873   -1.161758   -0.255828
  C      2.647733   -0.946522   -0.426753
  C      3.480533   -2.199913   -0.121809
  C      4.987343   -1.982695   -0.289096
  C     -1.593051   -0.335586   -0.305878
  C     -2.133317   -1.290007   -1.378058
  C     -3.558887   -1.783975   -1.093880
  C     -4.092279   -2.743452   -2.161826
  H     -0.574663    5.502599    1.206884
  H     -0.594099    5.491815    2.997229
  H     -1.925597    4.723128    2.080277
  H     -0.310812    2.979179    3.006810
  H      1.029658    3.753063    2.142070
  H     -0.107408    3.265870   -0.067277
  H     -1.457631    2.511060    0.798629
  H      0.132595    0.756428    1.748584
  H      1.488012    1.552972    0.906588
  H      0.803307   -1.984759   -0.924283
  H      0.902180   -1.483311    0.784511
  H      2.855278   -0.604713   -1.465531
  H      2.989323   -0.117754    0.233810
  H      3.261400   -2.538488    0.915787
  H      3.143151   -3.028842   -0.783889
  H      5.236825   -1.674639   -1.326309
  H      5.563464   -2.903613   -0.065457
  H      5.356938   -1.184230    0.388546
  H     -1.578060   -0.831289    0.692038
  H     -2.271583    0.540684   -0.212841
  H     -1.458983   -2.170792   -1.474362
  H     -2.105648   -0.783583   -2.368998
  H     -4.235935   -0.904806   -1.004439
  H     -3.580650   -2.279858   -0.097427
  H     -3.452494   -3.647204   -2.246814
  H     -4.114137   -2.261270   -3.161863
  H     -5.122497   -3.083825   -1.931979

 Multiplicity           Mult            ....    1
 Number of Electrons    NEL             ....  114
 Basis Dimension        Dim             ....  321

ORBITAL ENERGIES
----------------

  NO   OCC          E(Eh)            E(eV)
   0   2.0000     -76.324144     -2076.8855
   1   2.0000      -9.912278      -269.7268
   2   2.0000      -9.912229      -269.7255
   3   2.0000      -9.912222      -269.7253
   4   2.0000      -9.911605      -269.7085
   5   2.0000      -9.911550      -269.7070
   6   2.0000      -9.911498      -269.7056
   7   2.0000      -9.911257      -269.6990
   8   2.0000      -9.911235      -269.6984
   9   2.0000      -9.911228      -269.6982
  10   2.0000      -9.906025      -269.5567
  11   2.0000      -9.906013      -269.5563
  12   2.0000      -9.905998      -269.5559
  13   2.0000      -6.294081      -171.2707
  14   2.0000      -4.515485      -122.8726
  15   2.0000      -4.515480      -122.8725
  16   2.0000      -4.511839      -122.7734
  17   2.0000      -0.725787       -19.7497
  18   2.0000      -0.714322       -19.4377
  19   2.0000      -0.714272       -19.4363
  20   2.0000      -0.673739       -18.3334
  21   2.0000      -0.645365       -17.5613
  22   2.0000      -0.645275       -17.5588
  23   2.0000      -0.588159       -16.0046
  24   2.0000      -0.554628       -15.0922
  25   2.0000      -0.554551       -15.0901
  26   2.0000      -0.514581       -14.0025
  27   2.0000      -0.512898       -13.9567
  28   2.0000      -0.512827       -13.9547
  29   2.0000      -0.466490       -12.6938
  30   2.0000      -0.420879       -11.4527
  31   2.0000      -0.420796       -11.4504
  32   2.0000      -0.420542       -11.4435
  33   2.0000      -0.387336       -10.5399
  34   2.0000      -0.387244       -10.5374
  35   2.0000      -0.384982       -10.4759
  36   2.0000      -0.370308       -10.0766
  37   2.0000      -0.370218       -10.0741
  38   2.0000      -0.367219        -9.9925
  39   2.0000      -0.354593        -9.6490
  40   2.0000      -0.354536        -9.6474
  41   2.0000      -0.342511        -9.3202
  42   2.0000      -0.324017        -8.8170
  43   2.0000      -0.323963        -8.8155
  44   2.0000      -0.318547        -8.6681
  45   2.0000      -0.306849        -8.3498
  46   2.0000      -0.306824        -8.3491
  47   2.0000      -0.303210        -8.2508
  48   2.0000      -0.296030        -8.0554
  49   2.0000      -0.294437        -8.0120
  50   2.0000      -0.294401        -8.0111
  51   2.0000      -0.284165        -7.7325
  52   2.0000      -0.279686        -7.6106
  53   2.0000      -0.279636        -7.6093
  54   2.0000      -0.257364        -7.0032
  55   2.0000      -0.257260        -7.0004
  56   2.0000      -0.191474        -5.2103
  57   0.0000       0.024013         0.6534
  58   0.0000       0.024128         0.6566
  59   0.0000       0.034856         0.9485
  60   0.0000       0.044830         1.2199
  61   0.0000       0.044874         1.2211

MULLIKEN ATOMIC CHARGES
-----------------------
   0 C :   -0.041811
   1 C :   -0.060963
   2 C :   -0.015935
   3 C :   -0.162013
   4 P :    0.133251
   5 C :   -0.163191
   6 C :   -0.015664
   7 C :   -0.061123
   8 C :   -0.041579
   9 C :   -0.161766
  10 C :   -0.017138
  11 C :   -0.060596
  12 C :   -0.041887
  13 H :    0.027638
  14 H :    0.029684
  15 H :    0.026395
  16 H :    0.017202
  17 H :    0.018685
  18 H :    0.024430
  19 H :    0.018040
  20 H :    0.029382
  21 H :    0.045085
  22 H :    0.045302
  23 H :    0.029413
  24 H :    0.024457
  25 H :    0.017824
  26 H :    0.017236
  27 H :    0.018595
  28 H :    0.027649
  29 H :    0.029704
  30 H :    0.026402
  31 H :    0.029517
  32 H :    0.045329
  33 H :    0.018243
  34 H :    0.024556
  35 H :    0.018658
  36 H :    0.017139
  37 H :    0.026430
  38 H :    0.027703
  39 H :    0.029716
Sum of atomic charges:   -0.0000000

LOEWDIN ATOMIC CHARGES
----------------------
   0 C :   -0.074838
   1 C :   -0.051461
   2 C :   -0.057679
   3 C :   -0.184641
   4 P :    0.437158
   5 C :   -0.184613
   6 C :   -0.057609
   7 C :   -0.051459
   8 C :   -0.074810
   9 C :   -0.184662
  10 C :   -0.057726
  11 C :   -0.051442
  12 C :   -0.074813
  13 H :    0.027387
  14 H :    0.029074
  15 H :    0.026574
  16 H :    0.024141
  17 H :    0.024501
  18 H :    0.025946
  19 H :    0.021378
  20 H :    0.018292
  21 H :    0.025596
  22 H :    0.025546
  23 H :    0.018306
  24 H :    0.026006
  25 H :    0.021257
  26 H :    0.024156
  27 H :    0.024456
  28 H :    0.027384
  29 H :    0.029071
  30 H :    0.026588
  31 H :    0.018339
  32 H :    0.025617
  33 H :    0.021338
  34 H :    0.025943
  35 H :    0.024495
  36 H :    0.024146
  37 H :    0.026583
  38 H :    0.027395
  39 H :    0.029080

  Mayer bond orders larger than 0.100000
B(  0-C ,  1-C ) :   1.1117 B(  0-C , 13-H ) :   0.9659 B(  0-C , 14-H ) :   0.9619
B(  0-C , 15-H ) :   0.9657 B(  1-C ,  2-C ) :   1.0892 B(  1-C , 16-H ) :   0.9403
B(  1-C , 17-H ) :   0.9408 B(  2-C ,  3-C ) :   1.0664 B(  2-C , 18-H ) :   0.9342
B(  2-C , 19-H ) :   0.9342 B(  3-C ,  4-P ) :   0.9653 B(  3-C , 20-H ) :   0.9188
B(  3-C , 21-H ) :   0.9310 B(  4-P ,  5-C ) :   0.9651 B(  4-P ,  9-C ) :   0.9652
B(  5-C ,  6-C ) :   1.0666 B(  5-C , 22-H ) :   0.9310 B(  5-C , 23-H ) :   0.9189
B(  6-C ,  7-C ) :   1.0891 B(  6-C , 24-H ) :   0.9343 B(  6-C , 25-H ) :   0.9340
B(  7-C ,  8-C ) :   1.1116 B(  7-C , 26-H ) :   0.9402 B(  7-C , 27-H ) :   0.9408
B(  8-C , 28-H ) :   0.9659 B(  8-C , 29-H ) :   0.9619 B(  8-C , 30-H ) :   0.9657
B(  9-C , 10-C ) :   1.0666 B(  9-C , 31-H ) :   0.9189 B(  9-C , 32-H ) :   0.9312
B( 10-C , 11-C ) :   1.0893 B( 10-C , 33-H ) :   0.9340 B( 10-C , 34-H ) :   0.9341
B( 11-C , 12-C ) :   1.1116 B( 11-C , 35-H ) :   0.9407 B( 11-C , 36-H ) :   0.9403
B( 12-C , 37-H ) :   0.9657 B( 12-C , 38-H ) :   0.9659 B( 12-C , 39-H ) :   0.9619

Dispersion correction           -0.058549040
FINAL SINGLE POINT ENERGY      -814.532570844695

DIPOLE MOMENT
-------------

Method             : SCF
Type of density    : Electron Density
Multiplicity       :   1
Irrep              :   0
Energy             :  -814.4740218044771609 Eh
Relativity type    :
Basis              : AO
                                X                 Y                 Z
Electronic contribution:      0.577821119       1.826578932      -3.699726419
Nuclear contribution   :     -0.643996831      -2.019962325       4.095921839
                        -----------------------------------------
Total Dipole Moment    :     -0.066175712      -0.193383393       0.396195420
                        -----------------------------------------
Magnitude (a.u.)       :      0.445810691
Magnitude (Debye)      :      1.133160722

Rotational constants in cm-1:             0.012907             0.012836             0.006680
Rotational constants in MHz :           386.952198           384.813090           200.252483

                             ****ORCA TERMINATED NORMALLY****
TOTAL RUN TIME: 0 days 0 hours 1 minutes 19 seconds 408 msec
