                         Program Version 6.0.0  -   RELEASE   -
|  1> ! RI BP86 def2-SVP D3BJ TIGHTSCF Opt
|  2> %pal
|  3> nprocs 6
|  4> end
|  5>
|  6> * xyz 0 1
|  7> C     -1.896337   -2.046541    0.116894
|  8> C     -1.398604   -0.740020   -0.479288
|  9> P     -0.158618    0.103895    0.603008
| 10> C      1.328222   -0.945779    0.273437
| 11> C      2.561074   -0.456096    1.015362
| 12> C      0.241938    1.573428   -0.446349
| 13> C     -0.853679    2.626396   -0.413962
| 14> H     -1.090106   -2.779478    0.222400
| 15> H     -2.660416   -2.486833   -0.532338
| 16> H     -2.344898   -1.892386    1.104428
| 17> H     -2.257379   -0.074590   -0.615819
| 18> H     -0.972063   -0.925916   -1.470817
| 19> H      1.115181   -1.969655    0.597820
| 20> H      1.535201   -0.983033   -0.801456
| 21> H      3.402634   -1.131537    0.828996
| 22> H      2.862093    0.544601    0.689282
| 23> H      2.392079   -0.422897    2.097273
| 24> H      1.167248    2.027837   -0.077231
| 25> H      0.424031    1.262348   -1.480609
| 26> H     -1.793718    2.249111   -0.829076
| 27> H     -0.554787    3.495603   -1.009207
| 28> H     -1.049097    2.971544    0.607252
| 29> **                         ****END OF INPUT****
 Total Charge           Charge          ....    0
 Multiplicity           Mult            ....    1
 Number of Electrons    NEL             ....   66
Dispersion correction           -0.032250430
FINAL SINGLE POINT ENERGY      -578.802557939851
Dispersion correction             ... done (  0.1 sec)
Dispersion correction           -0.031968944
FINAL SINGLE POINT ENERGY      -578.806255331798
Dispersion correction             ... done (  0.1 sec)
Dispersion correction           -0.031868337
FINAL SINGLE POINT ENERGY      -578.806641505928
Dispersion correction             ... done (  0.1 sec)
FINAL SINGLE POINT ENERGY      -578.806802669753
Dispersion correction             ... done (  0.1 sec)
Dispersion correction           -0.031796615
FINAL SINGLE POINT ENERGY      -578.806830965395
Dispersion correction             ... done (  0.1 sec)
Dispersion correction           -0.031799843
FINAL SINGLE POINT ENERGY      -578.806836791032
Dispersion correction             ... done (  0.1 sec)
                    ***********************HURRAY********************

CARTESIAN COORDINATES (ANGSTROEM)
---------------------------------
  C     -1.926999   -2.075557    0.118694
  C     -1.398780   -0.767210   -0.479712
  P     -0.164834    0.111540    0.633663
  C      1.355973   -0.931505    0.268574
  C      2.601548   -0.472667    1.034248
  C      0.220445    1.589083   -0.462865
  C     -0.866044    2.669182   -0.424398
  H     -1.118097   -2.823206    0.254352
  H     -2.693314   -2.538982   -0.536619
  H     -2.388963   -1.905074    1.112928
  H     -2.239028   -0.056713   -0.635205
  H     -0.941285   -0.940421   -1.480105
  H      1.096287   -1.972396    0.558667
  H      1.542690   -0.946426   -0.829084
  H      3.465458   -1.140849    0.837501
  H      2.910100    0.553382    0.744666
  H      2.420538   -0.466118    2.128849
  H      1.182580    2.006837   -0.095722
  H      0.403478    1.241107   -1.504691
  H     -1.834160    2.294175   -0.816592
  H     -0.583255    3.548771   -1.039071
  H     -1.044338    3.023049    0.611920

 Multiplicity           Mult            ....    1
 Number of Electrons    NEL             ....   66
 Basis Dimension        Dim             ....  177

ORBITAL ENERGIES
----------------

  NO   OCC          E(Eh)            E(eV)
   0   2.0000     -76.323676     -2076.8728
   1   2.0000      -9.914836      -269.7964
   2   2.0000      -9.914822      -269.7960
   3   2.0000      -9.914765      -269.7945
   4   2.0000      -9.911174      -269.6968
   5   2.0000      -9.911151      -269.6961
   6   2.0000      -9.911114      -269.6951
   7   2.0000      -6.294007      -171.2686
   8   2.0000      -4.515398      -122.8702
   9   2.0000      -4.515394      -122.8701
  10   2.0000      -4.511728      -122.7703
  11   2.0000      -0.708179       -19.2705
  12   2.0000      -0.674168       -18.3450
  13   2.0000      -0.674111       -18.3435
  14   2.0000      -0.586857       -15.9692
  15   2.0000      -0.541206       -14.7270
  16   2.0000      -0.541109       -14.7243
  17   2.0000      -0.465206       -12.6589
  18   2.0000      -0.398887       -10.8543
  19   2.0000      -0.398734       -10.8501
  20   2.0000      -0.397488       -10.8162
  21   2.0000      -0.381878       -10.3914
  22   2.0000      -0.381817       -10.3898
  23   2.0000      -0.347632        -9.4595
  24   2.0000      -0.330585        -8.9957
  25   2.0000      -0.328813        -8.9474
  26   2.0000      -0.328737        -8.9454
  27   2.0000      -0.316074        -8.6008
  28   2.0000      -0.301501        -8.2043
  29   2.0000      -0.301486        -8.2039
  30   2.0000      -0.262877        -7.1532
  31   2.0000      -0.262852        -7.1526
  32   2.0000      -0.192000        -5.2246
  33   0.0000       0.022250         0.6054
  34   0.0000       0.022298         0.6068
  35   0.0000       0.034456         0.9376
  36   0.0000       0.058181         1.5832
  37   0.0000       0.058294         1.5863

MULLIKEN ATOMIC CHARGES
-----------------------
   0 C :   -0.036959
   1 C :   -0.198812
   2 P :    0.109279
   3 C :   -0.198760
   4 C :   -0.036429
   5 C :   -0.198620
   6 C :   -0.036872
   7 H :    0.032698
   8 H :    0.035449
   9 H :    0.040741
  10 H :    0.052266
  11 H :    0.038062
  12 H :    0.052026
  13 H :    0.038028
  14 H :    0.035391
  15 H :    0.032563
  16 H :    0.040665
  17 H :    0.052221
  18 H :    0.038117
  19 H :    0.032718
  20 H :    0.035456
  21 H :    0.040771
Sum of atomic charges:   -0.0000000

LOEWDIN ATOMIC CHARGES
----------------------
   0 C :   -0.084050
   1 C :   -0.191561
   2 P :    0.427980
   3 C :   -0.191544
   4 C :   -0.084068
   5 C :   -0.191539
   6 C :   -0.084019
   7 H :    0.024872
   8 H :    0.030590
   9 H :    0.030188
  10 H :    0.027448
  11 H :    0.019805
  12 H :    0.027460
  13 H :    0.019791
  14 H :    0.030554
  15 H :    0.024921
  16 H :    0.030202
  17 H :    0.027473
  18 H :    0.019758
  19 H :    0.024909
  20 H :    0.030599
  21 H :    0.030231

  Mayer bond orders larger than 0.100000
B(  0-C ,  1-C ) :   1.0921 B(  0-C ,  7-H ) :   0.9665 B(  0-C ,  8-H ) :   0.9609
B(  0-C ,  9-H ) :   0.9653 B(  1-C ,  2-P ) :   0.9672 B(  1-C , 10-H ) :   0.9384
B(  1-C , 11-H ) :   0.9270 B(  2-P ,  3-C ) :   0.9674 B(  2-P ,  5-C ) :   0.9675
B(  3-C ,  4-C ) :   1.0920 B(  3-C , 12-H ) :   0.9383 B(  3-C , 13-H ) :   0.9269
B(  4-C , 14-H ) :   0.9609 B(  4-C , 15-H ) :   0.9666 B(  4-C , 16-H ) :   0.9654
B(  5-C ,  6-C ) :   1.0919 B(  5-C , 17-H ) :   0.9385 B(  5-C , 18-H ) :   0.9270
B(  6-C , 19-H ) :   0.9666 B(  6-C , 20-H ) :   0.9609 B(  6-C , 21-H ) :   0.9653

Dispersion correction           -0.031801807
FINAL SINGLE POINT ENERGY      -578.806837986529

DIPOLE MOMENT
-------------

Method             : SCF
Type of density    : Electron Density
Multiplicity       :   1
Irrep              :   0
Energy             :  -578.7750361791804607 Eh
Relativity type    :
Basis              : AO
                                X                 Y                 Z
Electronic contribution:     -0.769885970       0.527076918       2.962238637
Nuclear contribution   :      0.882851684      -0.601627736      -3.396658680
                        -----------------------------------------
Total Dipole Moment    :      0.112965714      -0.074550818      -0.434420043
                        -----------------------------------------
Magnitude (a.u.)       :      0.455016319
Magnitude (Debye)      :      1.156559570

Rotational constants in cm-1:             0.060671             0.060443             0.033330
Rotational constants in MHz :          1818.882550          1812.021332           999.203064

                             ****ORCA TERMINATED NORMALLY****
TOTAL RUN TIME: 0 days 0 hours 0 minutes 32 seconds 695 msec
