                         Program Version 6.0.0  -   RELEASE   -
|  1> ! RIJONX B3LYP def2-SVP D3BJ TIGHTSCF Opt
|  2> %pal
|  3> nprocs 6
|  4> end
|  5>
|  6> * xyz 0 1
|  7> C      2.300487    1.432693    0.477796
|  8> C      1.637389    0.133425    0.006170
|  9> C      2.586026   -1.028947    0.320931
| 10> P     -0.011473   -0.092669    0.816367
| 11> C     -1.155147    1.124467    0.017418
| 12> C     -1.336109    2.342477    0.931641
| 13> C     -0.784790    1.588438   -1.388113
| 14> C     -0.606500   -1.743417    0.228537
| 15> C     -0.759655   -1.892707   -1.279570
| 16> C     -1.914122   -2.127719    0.929578
| 17> H      1.705784    2.315667    0.229021
| 18> H      3.278000    1.561243   -0.000862
| 19> H      2.459769    1.435679    1.562662
| 20> H      1.520318    0.177844   -1.080957
| 21> H      2.232118   -1.969734   -0.112252
| 22> H      3.579459   -0.842294   -0.102850
| 23> H      2.706691   -1.178201    1.400149
| 24> H     -2.138052    0.644345   -0.047706
| 25> H     -1.692456    2.046990    1.925401
| 26> H     -2.077501    3.031769    0.511906
| 27> H     -0.403466    2.900756    1.064723
| 28> H      0.119682    2.204034   -1.396690
| 29> H     -1.590610    2.202590   -1.806783
| 30> H     -0.625533    0.756146   -2.077730
| 31> H      0.140041   -2.475144    0.558375
| 32> H      0.155581   -1.623924   -1.815527
| 33> H     -0.988736   -2.933640   -1.535690
| 34> H     -1.579604   -1.281218   -1.669626
| 35> H     -1.812091   -2.085445    2.020112
| 36> H     -2.743497   -1.471199    0.645517
| 37> H     -2.202001   -3.152308    0.668050
| 38> **                         ****END OF INPUT****
 Total Charge           Charge          ....    0
 Multiplicity           Mult            ....    1
 Number of Electrons    NEL             ....   90
Dispersion correction           -0.058641755
FINAL SINGLE POINT ENERGY      -696.338881400576
Dispersion correction             ... done (  0.1 sec)
Dispersion correction           -0.058757858
FINAL SINGLE POINT ENERGY      -696.342316301326
Dispersion correction             ... done (  0.1 sec)
Dispersion correction           -0.058256945
FINAL SINGLE POINT ENERGY      -696.343080909664
Dispersion correction             ... done (  0.1 sec)
FINAL SINGLE POINT ENERGY      -696.342586531824
FINAL SINGLE POINT ENERGY      -696.343341405674
FINAL SINGLE POINT ENERGY      -696.343269380039
FINAL SINGLE POINT ENERGY      -696.343387794036
Dispersion correction             ... done (  0.1 sec)
Dispersion correction           -0.058351304
FINAL SINGLE POINT ENERGY      -696.343384044334
Dispersion correction             ... done (  0.1 sec)
Dispersion correction           -0.058343621
FINAL SINGLE POINT ENERGY      -696.343393630914
Dispersion correction             ... done (  0.1 sec)
                    ***********************HURRAY********************

CARTESIAN COORDINATES (ANGSTROEM)
---------------------------------
  C      2.297898    1.439863    0.455516
  C      1.648948    0.125403    0.001556
  C      2.578614   -1.059817    0.288645
  P      0.007242   -0.091765    0.902462
  C     -1.146939    1.146815    0.038331
  C     -1.371276    2.361310    0.951196
  C     -0.778809    1.590583   -1.381844
  C     -0.609533   -1.749315    0.236340
  C     -0.706428   -1.911525   -1.282413
  C     -1.933652   -2.109853    0.922499
  H      1.668641    2.315438    0.235897
  H      3.265880    1.590994   -0.052243
  H      2.483784    1.430079    1.542195
  H      1.474401    0.175544   -1.086020
  H      2.209923   -1.998010   -0.152563
  H      3.581380   -0.870106   -0.130397
  H      2.696730   -1.219761    1.373975
  H     -2.103268    0.596935   -0.016605
  H     -1.704224    2.055907    1.954863
  H     -2.132370    3.037383    0.524507
  H     -0.444513    2.945528    1.076646
  H      0.142275    2.193993   -1.393513
  H     -1.581909    2.221926   -1.800109
  H     -0.631832    0.744395   -2.066314
  H      0.152471   -2.455034    0.611421
  H      0.234070   -1.654228   -1.793257
  H     -0.950750   -2.955908   -1.543936
  H     -1.503978   -1.278613   -1.702775
  H     -1.852171   -2.043600    2.018631
  H     -2.749399   -1.437932    0.606001
  H     -2.241202   -3.136632    0.661307

 Multiplicity           Mult            ....    1
 Number of Electrons    NEL             ....   90
 Basis Dimension        Dim             ....  249

ORBITAL ENERGIES
----------------

  NO   OCC          E(Eh)            E(eV)
   0   2.0000     -77.025442     -2095.9688
   1   2.0000     -10.185918      -277.1729
   2   2.0000     -10.185859      -277.1713
   3   2.0000     -10.184486      -277.1339
   4   2.0000     -10.178108      -276.9604
   5   2.0000     -10.177528      -276.9446
   6   2.0000     -10.176983      -276.9298
   7   2.0000     -10.176441      -276.9150
   8   2.0000     -10.176375      -276.9132
   9   2.0000     -10.173516      -276.8354
  10   2.0000      -6.522621      -177.4895
  11   2.0000      -4.687981      -127.5665
  12   2.0000      -4.687871      -127.5635
  13   2.0000      -4.684928      -127.4834
  14   2.0000      -0.797435       -21.6993
  15   2.0000      -0.768702       -20.9174
  16   2.0000      -0.766467       -20.8566
  17   2.0000      -0.675940       -18.3933
  18   2.0000      -0.672815       -18.3082
  19   2.0000      -0.668237       -18.1836
  20   2.0000      -0.629481       -17.1290
  21   2.0000      -0.571022       -15.5383
  22   2.0000      -0.567530       -15.4433
  23   2.0000      -0.502560       -13.6753
  24   2.0000      -0.462544       -12.5864
  25   2.0000      -0.457933       -12.4610
  26   2.0000      -0.445000       -12.1091
  27   2.0000      -0.426771       -11.6130
  28   2.0000      -0.423358       -11.5202
  29   2.0000      -0.406117       -11.0510
  30   2.0000      -0.402001       -10.9390
  31   2.0000      -0.392809       -10.6889
  32   2.0000      -0.387446       -10.5429
  33   2.0000      -0.381640       -10.3849
  34   2.0000      -0.377695       -10.2776
  35   2.0000      -0.375105       -10.2071
  36   2.0000      -0.346051        -9.4165
  37   2.0000      -0.344809        -9.3827
  38   2.0000      -0.342882        -9.3303
  39   2.0000      -0.336988        -9.1699
  40   2.0000      -0.334687        -9.1073
  41   2.0000      -0.330282        -8.9874
  42   2.0000      -0.282871        -7.6973
  43   2.0000      -0.280535        -7.6337
  44   2.0000      -0.210370        -5.7245
  45   0.0000       0.046161         1.2561
  46   0.0000       0.052239         1.4215
  47   0.0000       0.058208         1.5839
  48   0.0000       0.079931         2.1750
  49   0.0000       0.086675         2.3586

MULLIKEN ATOMIC CHARGES
-----------------------
   0 C :    0.050100
   1 C :   -0.244452
   2 C :    0.041721
   3 P :    0.197219
   4 C :   -0.253082
   5 C :    0.063628
   6 C :    0.059102
   7 C :   -0.253351
   8 C :    0.052494
   9 C :    0.050862
  10 H :    0.013072
  11 H :    0.006318
  12 H :    0.013145
  13 H :    0.018542
  14 H :    0.015651
  15 H :    0.006091
  16 H :    0.015005
  17 H :    0.021734
  18 H :    0.012915
  19 H :    0.003302
  20 H :    0.003405
  21 H :    0.005609
  22 H :    0.004774
  23 H :    0.005477
  24 H :    0.026329
  25 H :    0.012741
  26 H :    0.004155
  27 H :    0.015808
  28 H :    0.017824
  29 H :    0.007008
  30 H :    0.006853
Sum of atomic charges:   -0.0000000

LOEWDIN ATOMIC CHARGES
----------------------
   0 C :   -0.059714
   1 C :   -0.172231
   2 C :   -0.058753
   3 P :    0.468259
   4 C :   -0.174244
   5 C :   -0.060111
   6 C :   -0.058983
   7 C :   -0.176387
   8 C :   -0.059628
   9 C :   -0.059443
  10 H :    0.016471
  11 H :    0.021135
  12 H :    0.021927
  13 H :    0.011184
  14 H :    0.018966
  15 H :    0.022232
  16 H :    0.021293
  17 H :    0.019102
  18 H :    0.020866
  19 H :    0.018113
  20 H :    0.017749
  21 H :    0.019787
  22 H :    0.022033
  23 H :    0.018886
  24 H :    0.020198
  25 H :    0.019059
  26 H :    0.021572
  27 H :    0.020375
  28 H :    0.022666
  29 H :    0.016311
  30 H :    0.021310

  Mayer bond orders larger than 0.100000
B(  0-C ,  1-C ) :   1.0599 B(  0-C , 10-H ) :   0.9607 B(  0-C , 11-H ) :   0.9592
B(  0-C , 12-H ) :   0.9634 B(  1-C ,  2-C ) :   1.0587 B(  1-C ,  3-P ) :   0.9644
B(  1-C , 13-H ) :   0.8996 B(  2-C , 14-H ) :   0.9620 B(  2-C , 15-H ) :   0.9606
B(  2-C , 16-H ) :   0.9642 B(  3-P ,  4-C ) :   0.9368 B(  3-P ,  7-C ) :   0.9549
B(  4-C ,  5-C ) :   1.0540 B(  4-C ,  6-C ) :   1.0572 B(  4-C , 17-H ) :   0.9164
B(  5-C , 18-H ) :   0.9621 B(  5-C , 19-H ) :   0.9622 B(  5-C , 20-H ) :   0.9679
B(  6-C , 21-H ) :   0.9597 B(  6-C , 22-H ) :   0.9547 B(  6-C , 23-H ) :   0.9583
B(  7-C ,  8-C ) :   1.0411 B(  7-C ,  9-C ) :   1.0607 B(  7-C , 24-H ) :   0.9187
B(  8-C , 25-H ) :   0.9627 B(  8-C , 26-H ) :   0.9545 B(  8-C , 27-H ) :   0.9632
B(  9-C , 28-H ) :   0.9608 B(  9-C , 29-H ) :   0.9651 B(  9-C , 30-H ) :   0.9614

Dispersion correction           -0.058342968
FINAL SINGLE POINT ENERGY      -696.343394178307

DIPOLE MOMENT
-------------

Method             : SCF
Type of density    : Electron Density
Multiplicity       :   1
Irrep              :   0
Energy             :  -696.2850512107384020 Eh
Relativity type    :
Basis              : AO
                                X                 Y                 Z
Electronic contribution:     -0.023523599      -0.956259800       4.876640082
Nuclear contribution   :      0.008483597       0.862160167      -5.339624774
                        -----------------------------------------
Total Dipole Moment    :     -0.015040002      -0.094099633      -0.462984692
                        -----------------------------------------
Magnitude (a.u.)       :      0.472689927
Magnitude (Debye)      :      1.201482312

Rotational constants in cm-1:             0.036401             0.033053             0.023095
Rotational constants in MHz :          1091.280195           990.915781           692.370594

                             ****ORCA TERMINATED NORMALLY****
TOTAL RUN TIME: 0 days 0 hours 3 minutes 39 seconds 271 msec
