                         Program Version 6.0.0  -   RELEASE   -
|  1> ! RI BP86 def2-SVP D3BJ TIGHTSCF Opt
|  2> %pal
|  3> nprocs 6
|  4> end
|  5>
|  6> * xyz 0 1
|  7> C     -1.471724    2.679438    1.560316
|  8> C     -0.664099    2.782809    0.295168
|  9> C     -0.609157    4.020342   -0.367919
| 10> C      0.137511    4.175493   -1.534035
| 11> C      0.845885    3.097926   -2.050633
| 12> C      0.811231    1.865019   -1.398910
| 13> C      0.065769    1.685803   -0.217252
| 14> P      0.034838    0.059538    0.607744
| 15> O      0.121360    0.207477    2.117714
| 16> C      1.431988   -0.917215   -0.040506
| 17> C      1.217940   -1.869242   -1.056369
| 18> C      2.271582   -2.624417   -1.571684
| 19> C      3.558806   -2.443838   -1.081516
| 20> C      3.794354   -1.505476   -0.078815
| 21> C      2.746745   -0.728551    0.443768
| 22> C      3.057522    0.255852    1.538258
| 23> C     -1.505922   -0.782618    0.114646
| 24> C     -2.227627   -0.335206   -1.009237
| 25> C     -3.405719   -0.966424   -1.408817
| 26> C     -3.885919   -2.055813   -0.692953
| 27> C     -3.186749   -2.517457    0.420355
| 28> C     -1.992743   -1.900533    0.830169
| 29> C     -1.290771   -2.430802    2.050657
| 30> H     -2.158933    3.526772    1.661194
| 31> H     -0.809952    2.679959    2.431390
| 32> H     -2.088618    1.776581    1.561715
| 33> H     -1.151894    4.877665    0.026042
| 34> H      0.168494    5.139481   -2.035092
| 35> H      1.431752    3.216843   -2.958610
| 36> H      1.380325    1.044413   -1.828657
| 37> H      0.222978   -2.039079   -1.460282
| 38> H      2.084319   -3.357943   -2.351858
| 39> H      4.380710   -3.035955   -1.475419
| 40> H      4.808154   -1.382868    0.297956
| 41> H      2.578534    1.220421    1.348820
| 42> H      4.134016    0.449485    1.602104
| 43> H      2.730808   -0.139033    2.504713
| 44> H     -1.882768    0.516679   -1.590017
| 45> H     -3.950727   -0.602161   -2.276043
| 46> H     -4.807535   -2.545153   -0.997022
| 47> H     -3.582004   -3.367702    0.973194
| 48> H     -0.215679   -2.528038    1.876202
| 49> H     -1.655533   -3.429818    2.313950
| 50> H     -1.471546   -1.772655    2.905571
| 51> **                         ****END OF INPUT****
 Total Charge           Charge          ....    0
 Multiplicity           Mult            ....    1
 Number of Electrons    NEL             ....  170
Dispersion correction           -0.109756553
FINAL SINGLE POINT ENERGY     -1228.879915794623
Dispersion correction             ... done (  0.1 sec)
Dispersion correction           -0.110557104
FINAL SINGLE POINT ENERGY     -1228.888172490157
Dispersion correction             ... done (  0.1 sec)
Dispersion correction           -0.111295488
FINAL SINGLE POINT ENERGY     -1228.890065079196
Dispersion correction             ... done (  0.1 sec)
FINAL SINGLE POINT ENERGY     -1228.890664827244
FINAL SINGLE POINT ENERGY     -1228.890920692130
FINAL SINGLE POINT ENERGY     -1228.891368980629
FINAL SINGLE POINT ENERGY     -1228.891595231649
FINAL SINGLE POINT ENERGY     -1228.891811637282
FINAL SINGLE POINT ENERGY     -1228.891873898720
FINAL SINGLE POINT ENERGY     -1228.891891879318
Dispersion correction             ... done (  0.1 sec)
Dispersion correction           -0.111424353
FINAL SINGLE POINT ENERGY     -1228.891893590534
Dispersion correction             ... done (  0.1 sec)
Dispersion correction           -0.111413343
FINAL SINGLE POINT ENERGY     -1228.891894282569
Dispersion correction             ... done (  0.1 sec)
                    ***********************HURRAY********************

CARTESIAN COORDINATES (ANGSTROEM)
---------------------------------
  C     -1.648135    2.625241    1.474021
  C     -0.722126    2.757833    0.290337
  C     -0.638721    3.975242   -0.415563
  C      0.199626    4.126814   -1.531326
  C      0.982830    3.049322   -1.971616
  C      0.920187    1.827391   -1.284896
  C      0.081180    1.672226   -0.162265
  P      0.039288    0.071116    0.739353
  O      0.123901    0.220822    2.256785
  C      1.412364   -0.915111    0.018991
  C      1.135253   -1.926981   -0.923049
  C      2.168796   -2.703802   -1.468134
  C      3.492089   -2.467064   -1.066714
  C      3.771970   -1.458666   -0.130936
  C      2.752610   -0.662602    0.429728
  C      3.091282    0.427366    1.416367
  C     -1.496593   -0.759009    0.166068
  C     -2.240212   -0.209524   -0.898532
  C     -3.429026   -0.815353   -1.332488
  C     -3.879250   -1.981500   -0.695492
  C     -3.140156   -2.533044    0.363029
  C     -1.941621   -1.945621    0.816443
  C     -1.161107   -2.576544    1.942928
  H     -2.082943    3.604094    1.752972
  H     -1.115971    2.182542    2.338499
  H     -2.485558    1.931438    1.245054
  H     -1.250531    4.825597   -0.074362
  H      0.240657    5.093297   -2.057018
  H      1.643110    3.157454   -2.845356
  H      1.533100    0.978216   -1.623327
  H      0.094484   -2.106860   -1.232546
  H      1.938528   -3.491003   -2.201864
  H      4.313807   -3.070412   -1.482519
  H      4.813407   -1.278132    0.179972
  H      2.890488    1.429142    0.979487
  H      4.158986    0.388069    1.705289
  H      2.448872    0.353947    2.315470
  H     -1.881698    0.706343   -1.392462
  H     -4.000334   -0.375307   -2.163775
  H     -4.812206   -2.466446   -1.021934
  H     -3.499295   -3.448556    0.859687
  H     -0.200377   -2.993272    1.570821
  H     -1.731035   -3.401086    2.412332
  H     -0.889920   -1.817617    2.702540

 Multiplicity           Mult            ....    1
 Number of Electrons    NEL             ....  170
 Basis Dimension        Dim             ....  431

ORBITAL ENERGIES
----------------

  NO   OCC          E(Eh)            E(eV)
   0   2.0000     -76.418525     -2079.4538
   1   2.0000     -18.719389      -509.3805
   2   2.0000      -9.936630      -270.3895
   3   2.0000      -9.936617      -270.3891
   4   2.0000      -9.936594      -270.3885
   5   2.0000      -9.928926      -270.1798
   6   2.0000      -9.928885      -270.1787
   7   2.0000      -9.928856      -270.1779
   8   2.0000      -9.927752      -270.1479
   9   2.0000      -9.927736      -270.1474
  10   2.0000      -9.927731      -270.1473
  11   2.0000      -9.926284      -270.1079
  12   2.0000      -9.926232      -270.1065
  13   2.0000      -9.926193      -270.1054
  14   2.0000      -9.924663      -270.0638
  15   2.0000      -9.924634      -270.0630
  16   2.0000      -9.924598      -270.0620
  17   2.0000      -9.922913      -270.0162
  18   2.0000      -9.922899      -270.0158
  19   2.0000      -9.922879      -270.0153
  20   2.0000      -9.905803      -269.5506
  21   2.0000      -9.905705      -269.5479
  22   2.0000      -9.905700      -269.5478
  23   2.0000      -6.375661      -173.4906
  24   2.0000      -4.597045      -125.0919
  25   2.0000      -4.597036      -125.0917
  26   2.0000      -4.596554      -125.0786
  27   2.0000      -0.852411       -23.1953
  28   2.0000      -0.782604       -21.2957
  29   2.0000      -0.778130       -21.1740
  30   2.0000      -0.778104       -21.1733
  31   2.0000      -0.700007       -19.0482
  32   2.0000      -0.698813       -19.0157
  33   2.0000      -0.698776       -19.0147
  34   2.0000      -0.692000       -18.8303
  35   2.0000      -0.671937       -18.2843
  36   2.0000      -0.671915       -18.2837
  37   2.0000      -0.618579       -16.8324
  38   2.0000      -0.612123       -16.6567
  39   2.0000      -0.612060       -16.6550
  40   2.0000      -0.577641       -15.7184
  41   2.0000      -0.549124       -14.9424
  42   2.0000      -0.549099       -14.9417
  43   2.0000      -0.534100       -14.5336
  44   2.0000      -0.524151       -14.2629
  45   2.0000      -0.524106       -14.2617
  46   2.0000      -0.493802       -13.4370
  47   2.0000      -0.459840       -12.5129
  48   2.0000      -0.459822       -12.5124
  49   2.0000      -0.437844       -11.9143
  50   2.0000      -0.424403       -11.5486
  51   2.0000      -0.424369       -11.5477
  52   2.0000      -0.420591       -11.4449
  53   2.0000      -0.401791       -10.9333
  54   2.0000      -0.401783       -10.9331
  55   2.0000      -0.391507       -10.6534
  56   2.0000      -0.383961       -10.4481
  57   2.0000      -0.383877       -10.4458
  58   2.0000      -0.372651       -10.1404
  59   2.0000      -0.368780       -10.0350
  60   2.0000      -0.368773       -10.0348
  61   2.0000      -0.363243        -9.8844
  62   2.0000      -0.362075        -9.8526
  63   2.0000      -0.361942        -9.8489
  64   2.0000      -0.349368        -9.5068
  65   2.0000      -0.337784        -9.1916
  66   2.0000      -0.337691        -9.1890
  67   2.0000      -0.333016        -9.0618
  68   2.0000      -0.321429        -8.7465
  69   2.0000      -0.321389        -8.7454
  70   2.0000      -0.316825        -8.6212
  71   2.0000      -0.311022        -8.4633
  72   2.0000      -0.310975        -8.4621
  73   2.0000      -0.310435        -8.4474
  74   2.0000      -0.302704        -8.2370
  75   2.0000      -0.301183        -8.1956
  76   2.0000      -0.301102        -8.1934
  77   2.0000      -0.240773        -6.5518
  78   2.0000      -0.240621        -6.5476
  79   2.0000      -0.240515        -6.5448
  80   2.0000      -0.227628        -6.1941
  81   2.0000      -0.227562        -6.1923
  82   2.0000      -0.227458        -6.1894
  83   2.0000      -0.213847        -5.8191
  84   2.0000      -0.213767        -5.8169
  85   0.0000      -0.066967        -1.8223
  86   0.0000      -0.061674        -1.6782
  87   0.0000      -0.061477        -1.6729
  88   0.0000      -0.053739        -1.4623
  89   0.0000      -0.043352        -1.1797

MULLIKEN ATOMIC CHARGES
-----------------------
   0 C :    0.053096
   1 C :   -0.069752
   2 C :   -0.040593
   3 C :    0.016646
   4 C :    0.003610
   5 C :   -0.009861
   6 C :   -0.160846
   7 P :    0.608202
   8 O :   -0.461296
   9 C :   -0.160615
  10 C :   -0.010221
  11 C :    0.003461
  12 C :    0.016597
  13 C :   -0.040584
  14 C :   -0.069738
  15 C :    0.053739
  16 C :   -0.159636
  17 C :   -0.010295
  18 C :    0.003547
  19 C :    0.016609
  20 C :   -0.040387
  21 C :   -0.069519
  22 C :    0.051731
  23 H :    0.018856
  24 H :    0.073530
  25 H :    0.042805
  26 H :   -0.008596
  27 H :    0.004988
  28 H :    0.002954
  29 H :    0.023836
  30 H :    0.023944
  31 H :    0.002969
  32 H :    0.005000
  33 H :   -0.008605
  34 H :    0.043054
  35 H :    0.018893
  36 H :    0.073350
  37 H :    0.023946
  38 H :    0.002937
  39 H :    0.005002
  40 H :   -0.008629
  41 H :    0.043175
  42 H :    0.019140
  43 H :    0.073557
Sum of atomic charges:   -0.0000000

LOEWDIN ATOMIC CHARGES
----------------------
   0 C :   -0.075006
   1 C :   -0.012304
   2 C :   -0.033570
   3 C :   -0.020248
   4 C :   -0.038333
   5 C :   -0.031107
   6 C :   -0.187912
   7 P :    0.895881
   8 O :   -0.477870
   9 C :   -0.187873
  10 C :   -0.031208
  11 C :   -0.038387
  12 C :   -0.020265
  13 C :   -0.033551
  14 C :   -0.012178
  15 C :   -0.074869
  16 C :   -0.187947
  17 C :   -0.031113
  18 C :   -0.038331
  19 C :   -0.020233
  20 C :   -0.033572
  21 C :   -0.012197
  22 C :   -0.075167
  23 H :    0.031286
  24 H :    0.047111
  25 H :    0.044107
  26 H :    0.031686
  27 H :    0.034488
  28 H :    0.033839
  29 H :    0.036598
  30 H :    0.036572
  31 H :    0.033841
  32 H :    0.034490
  33 H :    0.031683
  34 H :    0.044152
  35 H :    0.031298
  36 H :    0.047191
  37 H :    0.036591
  38 H :    0.033844
  39 H :    0.034487
  40 H :    0.031691
  41 H :    0.044175
  42 H :    0.031424
  43 H :    0.046806

  Mayer bond orders larger than 0.100000
B(  0-C ,  1-C ) :   1.1161 B(  0-C , 23-H ) :   0.9407 B(  0-C , 24-H ) :   0.9076
B(  0-C , 25-H ) :   0.9240 B(  1-C ,  2-C ) :   1.4031 B(  1-C ,  6-C ) :   1.3664
B(  2-C ,  3-C ) :   1.3650 B(  2-C , 26-H ) :   0.9712 B(  3-C ,  4-C ) :   1.3693
B(  3-C , 27-H ) :   0.9739 B(  4-C ,  5-C ) :   1.3767 B(  4-C , 28-H ) :   0.9769
B(  5-C ,  6-C ) :   1.3701 B(  5-C , 29-H ) :   0.9621 B(  6-C ,  7-P ) :   0.8981
B(  7-P ,  8-O ) :   1.7472 B(  7-P ,  9-C ) :   0.8981 B(  7-P , 16-C ) :   0.8981
B(  9-C , 10-C ) :   1.3707 B(  9-C , 14-C ) :   1.3666 B( 10-C , 11-C ) :   1.3763
B( 10-C , 30-H ) :   0.9620 B( 11-C , 12-C ) :   1.3695 B( 11-C , 31-H ) :   0.9769
B( 12-C , 13-C ) :   1.3648 B( 12-C , 32-H ) :   0.9740 B( 13-C , 14-C ) :   1.4032
B( 13-C , 33-H ) :   0.9712 B( 14-C , 15-C ) :   1.1163 B( 15-C , 34-H ) :   0.9239
B( 15-C , 35-H ) :   0.9407 B( 15-C , 36-H ) :   0.9076 B( 16-C , 17-C ) :   1.3710
B( 16-C , 21-C ) :   1.3659 B( 17-C , 18-C ) :   1.3767 B( 17-C , 37-H ) :   0.9620
B( 18-C , 19-C ) :   1.3695 B( 18-C , 38-H ) :   0.9768 B( 19-C , 20-C ) :   1.3648
B( 19-C , 39-H ) :   0.9739 B( 20-C , 21-C ) :   1.4035 B( 20-C , 40-H ) :   0.9713
B( 21-C , 22-C ) :   1.1155 B( 22-C , 41-H ) :   0.9243 B( 22-C , 42-H ) :   0.9408
B( 22-C , 43-H ) :   0.9071

Dispersion correction           -0.111404324
FINAL SINGLE POINT ENERGY     -1228.891894903056

DIPOLE MOMENT
-------------

Method             : SCF
Type of density    : Electron Density
Multiplicity       :   1
Irrep              :   0
Energy             : -1228.7804905787820644 Eh
Relativity type    :
Basis              : AO
                                X                 Y                 Z
Electronic contribution:     -0.155185189      -0.241467652      -2.305868471
Nuclear contribution   :      0.092913835       0.127973771       1.137165074
                        -----------------------------------------
Total Dipole Moment    :     -0.062271354      -0.113493881      -1.168703398
                        -----------------------------------------
Magnitude (a.u.)       :      1.175851272
Magnitude (Debye)      :      2.988776412

Rotational constants in cm-1:             0.008976             0.008966             0.005881
Rotational constants in MHz :           269.107218           268.800749           176.319774

                             ****ORCA TERMINATED NORMALLY****
TOTAL RUN TIME: 0 days 0 hours 5 minutes 26 seconds 73 msec
