                         Program Version 6.0.0  -   RELEASE   -
|  1> ! RIJCOSX M062X def2-TZVP D3ZERO NormalSCF
|  2> %pal
|  3> nprocs 6
|  4> end
|  5>
|  6> * xyz 0 1
|  7>   C          -2.71485061764309     -3.20192311167317     -0.66900622428378
|  8>   C          -1.95823710340406     -3.52917048327389      0.46988702772017
|  9>   C          -1.17750953159314     -2.54868440216633      1.10022885837279
| 10>   C          -1.12533170435774     -1.23264638357521      0.58884553332163
| 11>   C          -1.88821472165735     -0.91229055356332     -0.55353652927512
| 12>   C          -2.68035057917793     -1.89205583132552     -1.17512185892809
| 13>   P          -0.04240263458509     -0.02390905599915      1.48210677822161
| 14>   C           1.59391765491763     -0.35913428682546      0.68079652354773
| 15>   C           2.72837213842375      0.25571473844078      1.25627675770820
| 16>   C           4.00164109811453      0.07103400923179      0.69697148121156
| 17>   C           4.16139372488614     -0.74843429141912     -0.43422748890443
| 18>   C           3.04088685274599     -1.37567545624412     -1.00355483670077
| 19>   C           1.76304370917205     -1.18105570820154     -0.45300963958347
| 20>   C          -0.52223906352440      1.55951050959588      0.64909863023502
| 21>   C          -1.65240419388625      2.23605660850295      1.16035508622939
| 22>   C          -2.09533566138281      3.43097260832217      0.57381580227763
| 23>   C          -1.40119459937967      3.97779995419370     -0.51973138501829
| 24>   C          -0.26760211623426      3.31958286466288     -1.02463490947772
| 25>   C           0.16921581119091      2.11538102246630     -0.44755705929137
| 26>   H          -3.33507916645662     -3.96811637206198     -1.15895894312697
| 27>   H          -1.98420858553136     -4.55238979369971      0.87560098693289
| 28>   H          -0.59555486758538     -2.80395856041342      2.00084524219075
| 29>   H          -1.85735063355079      0.10932693451307     -0.96082111918821
| 30>   H          -3.27201732465818     -1.62914845874257     -2.06582837363501
| 31>   H           2.60652175453769      0.88862454080020      2.15039390239197
| 32>   H           4.87585070697484      0.56178735823784      1.15210606206518
| 33>   H           5.16118295448782     -0.90137308171755     -0.86875993260933
| 34>   H           3.16000248174708     -2.02026192192879     -1.88836796120904
| 35>   H           0.88817179136486     -1.66788069595937     -0.90928276687522
| 36>   H          -2.19004959668904      1.81519283224033      2.02558479590056
| 37>   H          -2.98169467651548      3.94381164006645      0.97827698616721
| 38>   H          -1.74211105389091      4.92015807787694     -0.97528473927390
| 39>   H           0.28148950177186      3.74376502352629     -1.87969405535736
| 40>   H           1.05204825136842      1.59938672611265     -0.85381063175620
| 41> **                         ****END OF INPUT****

CARTESIAN COORDINATES (ANGSTROEM)
---------------------------------
  C     -2.714851   -3.201923   -0.669006
  C     -1.958237   -3.529170    0.469887
  C     -1.177510   -2.548684    1.100229
  C     -1.125332   -1.232646    0.588846
  C     -1.888215   -0.912291   -0.553537
  C     -2.680351   -1.892056   -1.175122
  P     -0.042403   -0.023909    1.482107
  C      1.593918   -0.359134    0.680797
  C      2.728372    0.255715    1.256277
  C      4.001641    0.071034    0.696971
  C      4.161394   -0.748434   -0.434227
  C      3.040887   -1.375675   -1.003555
  C      1.763044   -1.181056   -0.453010
  C     -0.522239    1.559511    0.649099
  C     -1.652404    2.236057    1.160355
  C     -2.095336    3.430973    0.573816
  C     -1.401195    3.977800   -0.519731
  C     -0.267602    3.319583   -1.024635
  C      0.169216    2.115381   -0.447557
  H     -3.335079   -3.968116   -1.158959
  H     -1.984209   -4.552390    0.875601
  H     -0.595555   -2.803959    2.000845
  H     -1.857351    0.109327   -0.960821
  H     -3.272017   -1.629148   -2.065828
  H      2.606522    0.888625    2.150394
  H      4.875851    0.561787    1.152106
  H      5.161183   -0.901373   -0.868760
  H      3.160002   -2.020262   -1.888368
  H      0.888172   -1.667881   -0.909283
  H     -2.190050    1.815193    2.025585
  H     -2.981695    3.943812    0.978277
  H     -1.742111    4.920158   -0.975285
  H      0.281490    3.743765   -1.879694
  H      1.052048    1.599387   -0.853811

 Total Charge           Charge          ....    0
 Multiplicity           Mult            ....    1
 Number of Electrons    NEL             ....  138
 Basis Dimension        Dim             ....  685

ORBITAL ENERGIES
----------------

  NO   OCC          E(Eh)            E(eV)
   0   2.0000     -78.031681     -2123.3500
   1   2.0000     -10.554957      -287.2150
   2   2.0000     -10.554951      -287.2148
   3   2.0000     -10.554911      -287.2137
   4   2.0000     -10.552423      -287.1460
   5   2.0000     -10.552421      -287.1460
   6   2.0000     -10.552390      -287.1451
   7   2.0000     -10.552144      -287.1384
   8   2.0000     -10.552111      -287.1375
   9   2.0000     -10.552105      -287.1374
  10   2.0000     -10.551125      -287.1107
  11   2.0000     -10.551111      -287.1103
  12   2.0000     -10.551092      -287.1098
  13   2.0000     -10.550819      -287.1024
  14   2.0000     -10.550783      -287.1014
  15   2.0000     -10.550775      -287.1012
  16   2.0000     -10.549975      -287.0794
  17   2.0000     -10.549941      -287.0785
  18   2.0000     -10.549908      -287.0776
  19   2.0000      -6.847695      -186.3352
  20   2.0000      -4.962317      -135.0315
  21   2.0000      -4.961906      -135.0203
  22   2.0000      -4.961902      -135.0202
  23   2.0000      -0.962277       -26.1849
  24   2.0000      -0.953840       -25.9553
  25   2.0000      -0.953831       -25.9551
  26   2.0000      -0.866712       -23.5844
  27   2.0000      -0.842297       -22.9201
  28   2.0000      -0.842286       -22.9198
  29   2.0000      -0.841040       -22.8859
  30   2.0000      -0.834831       -22.7169
  31   2.0000      -0.834821       -22.7166
  32   2.0000      -0.732215       -19.9246
  33   2.0000      -0.688547       -18.7363
  34   2.0000      -0.688507       -18.7352
  35   2.0000      -0.686796       -18.6887
  36   2.0000      -0.674957       -18.3665
  37   2.0000      -0.674931       -18.3658
  38   2.0000      -0.632774       -17.2187
  39   2.0000      -0.589297       -16.0356
  40   2.0000      -0.589293       -16.0355
  41   2.0000      -0.566861       -15.4251
  42   2.0000      -0.526221       -14.3192
  43   2.0000      -0.526194       -14.3185
  44   2.0000      -0.518642       -14.1130
  45   2.0000      -0.514767       -14.0075
  46   2.0000      -0.514748       -14.0070
  47   2.0000      -0.509506       -13.8644
  48   2.0000      -0.487752       -13.2724
  49   2.0000      -0.487000       -13.2519
  50   2.0000      -0.486980       -13.2514
  51   2.0000      -0.470718       -12.8089
  52   2.0000      -0.470705       -12.8085
  53   2.0000      -0.440618       -11.9898
  54   2.0000      -0.436250       -11.8710
  55   2.0000      -0.436220       -11.8701
  56   2.0000      -0.426308       -11.6004
  57   2.0000      -0.403999       -10.9934
  58   2.0000      -0.403961       -10.9923
  59   2.0000      -0.403433       -10.9780
  60   2.0000      -0.376259       -10.2385
  61   2.0000      -0.376212       -10.2373
  62   2.0000      -0.334736        -9.1086
  63   2.0000      -0.315902        -8.5961
  64   2.0000      -0.313747        -8.5375
  65   2.0000      -0.313727        -8.5369
  66   2.0000      -0.305975        -8.3260
  67   2.0000      -0.305961        -8.3256
  68   2.0000      -0.266695        -7.2571
  69   0.0000      -0.001542        -0.0420
  70   0.0000      -0.001496        -0.0407
  71   0.0000      -0.001055        -0.0287
  72   0.0000       0.016465         0.4480
  73   0.0000       0.022679         0.6171

MULLIKEN ATOMIC CHARGES
-----------------------
   0 C :   -0.137055
   1 C :   -0.144388
   2 C :   -0.147082
   3 C :   -0.095423
   4 C :   -0.135377
   5 C :   -0.159756
   6 P :    0.126919
   7 C :   -0.096056
   8 C :   -0.145814
   9 C :   -0.144915
  10 C :   -0.136833
  11 C :   -0.160823
  12 C :   -0.134398
  13 C :   -0.097198
  14 C :   -0.146737
  15 C :   -0.146049
  16 C :   -0.135798
  17 C :   -0.161816
  18 C :   -0.132826
  19 H :    0.145770
  20 H :    0.146215
  21 H :    0.154480
  22 H :    0.184351
  23 H :    0.145938
  24 H :    0.155341
  25 H :    0.145890
  26 H :    0.145913
  27 H :    0.146121
  28 H :    0.183772
  29 H :    0.154989
  30 H :    0.146190
  31 H :    0.146109
  32 H :    0.146158
  33 H :    0.184189
Sum of atomic charges:    0.0000000

LOEWDIN ATOMIC CHARGES
----------------------
   0 C :   -0.141592
   1 C :   -0.143864
   2 C :   -0.142768
   3 C :   -0.276822
   4 C :   -0.137016
   5 C :   -0.142835
   6 P :    0.700190
   7 C :   -0.276720
   8 C :   -0.142831
   9 C :   -0.143881
  10 C :   -0.141579
  11 C :   -0.142909
  12 C :   -0.136981
  13 C :   -0.276801
  14 C :   -0.142815
  15 C :   -0.143872
  16 C :   -0.141544
  17 C :   -0.142850
  18 C :   -0.136966
  19 H :    0.147044
  20 H :    0.147852
  21 H :    0.150719
  22 H :    0.157993
  23 H :    0.147923
  24 H :    0.150728
  25 H :    0.147846
  26 H :    0.147093
  27 H :    0.147884
  28 H :    0.157920
  29 H :    0.150694
  30 H :    0.147848
  31 H :    0.147059
  32 H :    0.147876
  33 H :    0.157977

  Mayer bond orders larger than 0.100000
B(  0-C ,  1-C ) :   1.4270 B(  0-C ,  5-C ) :   1.4373 B(  0-C , 19-H ) :   0.9472
B(  1-C ,  2-C ) :   1.4604 B(  1-C , 20-H ) :   0.9472 B(  2-C ,  3-C ) :   1.3981
B(  2-C , 21-H ) :   0.9364 B(  3-C ,  4-C ) :   1.3424 B(  3-C ,  6-P ) :   0.9342
B(  4-C ,  5-C ) :   1.4592 B(  4-C , 22-H ) :   0.9263 B(  5-C , 23-H ) :   0.9447
B(  6-P ,  7-C ) :   0.9328 B(  6-P , 13-C ) :   0.9350 B(  7-C ,  8-C ) :   1.3984
B(  7-C , 12-C ) :   1.3405 B(  8-C ,  9-C ) :   1.4607 B(  8-C , 24-H ) :   0.9354
B(  9-C , 10-C ) :   1.4257 B(  9-C , 25-H ) :   0.9477 B( 10-C , 11-C ) :   1.4385
B( 10-C , 26-H ) :   0.9472 B( 11-C , 12-C ) :   1.4597 B( 11-C , 27-H ) :   0.9442
B( 12-C , 28-H ) :   0.9264 B( 13-C , 14-C ) :   1.3993 B( 13-C , 18-C ) :   1.3404
B( 14-C , 15-C ) :   1.4622 B( 14-C , 29-H ) :   0.9348 B( 15-C , 16-C ) :   1.4271
B( 15-C , 30-H ) :   0.9469 B( 16-C , 17-C ) :   1.4392 B( 16-C , 31-H ) :   0.9465
B( 17-C , 18-C ) :   1.4598 B( 17-C , 32-H ) :   0.9438 B( 18-C , 33-H ) :   0.9255

Dispersion correction           -0.002012921
FINAL SINGLE POINT ENERGY     -1036.241578845020

DIPOLE MOMENT
-------------

Method             : SCF
Type of density    : Electron Density
Multiplicity       :   1
Irrep              :   0
Energy             : -1036.2395659240162331 Eh
Relativity type    :
Basis              : AO
                                X                 Y                 Z
Electronic contribution:     -0.162632556      -0.092476374       5.711937456
Nuclear contribution   :      0.178488244       0.102182751      -6.282111493
                        -----------------------------------------
Total Dipole Moment    :      0.015855688       0.009706377      -0.570174037
                        -----------------------------------------
Magnitude (a.u.)       :      0.570477037
Magnitude (Debye)      :      1.450037390

Rotational constants in cm-1:             0.011871             0.011857             0.007056
Rotational constants in MHz :           355.890322           355.477699           211.542112

                             ****ORCA TERMINATED NORMALLY****
TOTAL RUN TIME: 0 days 0 hours 1 minutes 55 seconds 54 msec
