                         Program Version 6.0.0  -   RELEASE   -
|  1> ! RIJCOSX M062X def2-TZVP D3ZERO NormalSCF
|  2> %pal
|  3> nprocs 6
|  4> end
|  5>
|  6> * xyz 0 1
|  7>   C          -0.09924043697966     -2.07680693220558      1.68115571531830
|  8>   P           0.04520330332307     -1.44614008059517     -0.03432080288861
|  9>   O           0.15240940490279     -2.51867527576943     -1.10403292318416
| 10>   C           1.48951062999263     -0.31613641669938     -0.03129390012352
| 11>   C           1.81559602994934      0.55677711920898      1.02691718996939
| 12>   C           2.93635290832131      1.39630740094405      0.92494926561369
| 13>   C           3.73619447360170      1.36496575195902     -0.23062222645462
| 14>   C           3.41908785672747      0.48839664808167     -1.28246073196912
| 15>   C           2.30040444156880     -0.35320515734292     -1.18365759066193
| 16>   C          -1.43195432446819     -0.38273763131689     -0.28021478634324
| 17>   C          -1.74264256260036      0.73315593301029      0.52306058309223
| 18>   C          -2.89761319159392      1.48586271798858      0.26070909524392
| 19>   C          -3.74381132722217      1.12863652435499     -0.80441409354901
| 20>   C          -3.43299191366144      0.01943283563256     -1.60877576201299
| 21>   C          -2.27817953153924     -0.73630538010858     -1.34928356202786
| 22>   H          -0.23446018584943     -1.26123211530050      2.41821532994869
| 23>   H           0.81269760386745     -2.65541257534734      1.92620999190023
| 24>   H          -0.97946687441153     -2.74774603770730      1.71849550842168
| 25>   H           1.20442041008754      0.58253506496894      1.94246628143103
| 26>   H           3.19014285845951      2.07531750627953      1.75349127014055
| 27>   H           4.61500250399462      2.02355097684350     -0.30798974569204
| 28>   H           4.05063795254027      0.45714561853992     -2.18370777199558
| 29>   H           2.03691454288437     -1.06152213981378     -1.98470700053196
| 30>   H          -1.08008474855814      1.02950627535191      1.35122370350045
| 31>   H          -3.13792748101449      2.35820691734171      0.88785115637635
| 32>   H          -4.64854137653204      1.72183122470004     -1.00861498117247
| 33>   H          -4.09359322551487     -0.25768253991806     -2.44483213199002
| 34>   H          -2.00406774027538     -1.60802623308075     -1.96421608035938
| 35> **                         ****END OF INPUT****

CARTESIAN COORDINATES (ANGSTROEM)
---------------------------------
  C     -0.099240   -2.076807    1.681156
  P      0.045203   -1.446140   -0.034321
  O      0.152409   -2.518675   -1.104033
  C      1.489511   -0.316136   -0.031294
  C      1.815596    0.556777    1.026917
  C      2.936353    1.396307    0.924949
  C      3.736194    1.364966   -0.230622
  C      3.419088    0.488397   -1.282461
  C      2.300404   -0.353205   -1.183658
  C     -1.431954   -0.382738   -0.280215
  C     -1.742643    0.733156    0.523061
  C     -2.897613    1.485863    0.260709
  C     -3.743811    1.128637   -0.804414
  C     -3.432992    0.019433   -1.608776
  C     -2.278180   -0.736305   -1.349284
  H     -0.234460   -1.261232    2.418215
  H      0.812698   -2.655413    1.926210
  H     -0.979467   -2.747746    1.718496
  H      1.204420    0.582535    1.942466
  H      3.190143    2.075318    1.753491
  H      4.615003    2.023551   -0.307990
  H      4.050638    0.457146   -2.183708
  H      2.036915   -1.061522   -1.984707
  H     -1.080085    1.029506    1.351224
  H     -3.137927    2.358207    0.887851
  H     -4.648541    1.721831   -1.008615
  H     -4.093593   -0.257683   -2.444832
  H     -2.004068   -1.608026   -1.964216

 Total Charge           Charge          ....    0
 Multiplicity           Mult            ....    1
 Number of Electrons    NEL             ....  114
 Basis Dimension        Dim             ....  549

ORBITAL ENERGIES
----------------

  NO   OCC          E(Eh)            E(eV)
   0   2.0000     -78.096350     -2125.1097
   1   2.0000     -19.567222      -532.4512
   2   2.0000     -10.566343      -287.5248
   3   2.0000     -10.563908      -287.4586
   4   2.0000     -10.561471      -287.3922
   5   2.0000     -10.560436      -287.3641
   6   2.0000     -10.559904      -287.3496
   7   2.0000     -10.559637      -287.3423
   8   2.0000     -10.558751      -287.3182
   9   2.0000     -10.557959      -287.2967
  10   2.0000     -10.557698      -287.2896
  11   2.0000     -10.557143      -287.2745
  12   2.0000     -10.556357      -287.2531
  13   2.0000     -10.555470      -287.2289
  14   2.0000     -10.550829      -287.1027
  15   2.0000      -6.902495      -187.8264
  16   2.0000      -5.019692      -136.5928
  17   2.0000      -5.019499      -136.5875
  18   2.0000      -5.017928      -136.5448
  19   2.0000      -1.062549       -28.9134
  20   2.0000      -0.965756       -26.2796
  21   2.0000      -0.962423       -26.1889
  22   2.0000      -0.867750       -23.6127
  23   2.0000      -0.850251       -23.1365
  24   2.0000      -0.848204       -23.0808
  25   2.0000      -0.845912       -23.0184
  26   2.0000      -0.816948       -22.2303
  27   2.0000      -0.715359       -19.4659
  28   2.0000      -0.696909       -18.9638
  29   2.0000      -0.693535       -18.8720
  30   2.0000      -0.685404       -18.6508
  31   2.0000      -0.633998       -17.2520
  32   2.0000      -0.599564       -16.3150
  33   2.0000      -0.581143       -15.8137
  34   2.0000      -0.533665       -14.5218
  35   2.0000      -0.529364       -14.4047
  36   2.0000      -0.523971       -14.2580
  37   2.0000      -0.522666       -14.2225
  38   2.0000      -0.505449       -13.7540
  39   2.0000      -0.504111       -13.7176
  40   2.0000      -0.495100       -13.4723
  41   2.0000      -0.492771       -13.4090
  42   2.0000      -0.472625       -12.8608
  43   2.0000      -0.466839       -12.7033
  44   2.0000      -0.447997       -12.1906
  45   2.0000      -0.443612       -12.0713
  46   2.0000      -0.436892       -11.8884
  47   2.0000      -0.415158       -11.2970
  48   2.0000      -0.410134       -11.1603
  49   2.0000      -0.405167       -11.0251
  50   2.0000      -0.401035       -10.9127
  51   2.0000      -0.339586        -9.2406
  52   2.0000      -0.335907        -9.1405
  53   2.0000      -0.322990        -8.7890
  54   2.0000      -0.318679        -8.6717
  55   2.0000      -0.315547        -8.5865
  56   2.0000      -0.310956        -8.4615
  57   0.0000      -0.015711        -0.4275
  58   0.0000       0.002173         0.0591
  59   0.0000       0.008364         0.2276
  60   0.0000       0.012934         0.3520
  61   0.0000       0.053807         1.4642

MULLIKEN ATOMIC CHARGES
-----------------------
   0 C :   -0.492800
   1 P :    0.645012
   2 O :   -0.608840
   3 C :   -0.038017
   4 C :   -0.185266
   5 C :   -0.166147
   6 C :   -0.136405
   7 C :   -0.135375
   8 C :   -0.155909
   9 C :   -0.076052
  10 C :   -0.157280
  11 C :   -0.168738
  12 C :   -0.135385
  13 C :   -0.139728
  14 C :   -0.144968
  15 H :    0.154237
  16 H :    0.179735
  17 H :    0.178193
  18 H :    0.159214
  19 H :    0.146853
  20 H :    0.148949
  21 H :    0.150182
  22 H :    0.193637
  23 H :    0.144208
  24 H :    0.145807
  25 H :    0.148633
  26 H :    0.149983
  27 H :    0.196267
Sum of atomic charges:   -0.0000000

LOEWDIN ATOMIC CHARGES
----------------------
   0 C :   -0.417849
   1 P :    0.621657
   2 O :   -0.315569
   3 C :   -0.232049
   4 C :   -0.140499
   5 C :   -0.141254
   6 C :   -0.132130
   7 C :   -0.134835
   8 C :   -0.114335
   9 C :   -0.233321
  10 C :   -0.134430
  11 C :   -0.141160
  12 C :   -0.133142
  13 C :   -0.136586
  14 C :   -0.117579
  15 H :    0.124011
  16 H :    0.134639
  17 H :    0.136156
  18 H :    0.144434
  19 H :    0.148539
  20 H :    0.148834
  21 H :    0.149883
  22 H :    0.161960
  23 H :    0.146213
  24 H :    0.148376
  25 H :    0.148545
  26 H :    0.149439
  27 H :    0.162053

  Mayer bond orders larger than 0.100000
B(  0-C ,  1-P ) :   0.9509 B(  0-C , 15-H ) :   0.9327 B(  0-C , 16-H ) :   0.9433
B(  0-C , 17-H ) :   0.9431 B(  1-P ,  2-O ) :   1.9258 B(  1-P ,  3-C ) :   0.9029
B(  1-P ,  9-C ) :   0.9110 B(  3-C ,  4-C ) :   1.3528 B(  3-C ,  8-C ) :   1.4203
B(  4-C ,  5-C ) :   1.5103 B(  4-C , 18-H ) :   0.9115 B(  5-C ,  6-C ) :   1.4466
B(  5-C , 19-H ) :   0.9438 B(  6-C ,  7-C ) :   1.4385 B(  6-C , 20-H ) :   0.9453
B(  7-C ,  8-C ) :   1.4343 B(  7-C , 21-H ) :   0.9475 B(  8-C , 22-H ) :   0.9068
B(  9-C , 10-C ) :   1.3607 B(  9-C , 14-C ) :   1.4138 B( 10-C , 11-C ) :   1.5159
B( 10-C , 23-H ) :   0.9093 B( 11-C , 12-C ) :   1.4364 B( 11-C , 24-H ) :   0.9449
B( 12-C , 13-C ) :   1.4415 B( 12-C , 25-H ) :   0.9456 B( 13-C , 14-C ) :   1.4268
B( 13-C , 26-H ) :   0.9478 B( 14-C , 27-H ) :   0.9089

Dispersion correction           -0.001432729
FINAL SINGLE POINT ENERGY      -919.788433800563

DIPOLE MOMENT
-------------

Method             : SCF
Type of density    : Electron Density
Multiplicity       :   1
Irrep              :   0
Energy             :  -919.7870010716105753 Eh
Relativity type    :
Basis              : AO
                                X                 Y                 Z
Electronic contribution:      0.429040947      -2.903359641      -3.335955233
Nuclear contribution   :     -0.521090750       4.210001448       4.337242467
                        -----------------------------------------
Total Dipole Moment    :     -0.092049803       1.306641807       1.001287234
                        -----------------------------------------
Magnitude (a.u.)       :      1.648745615
Magnitude (Debye)      :      4.190778305

Rotational constants in cm-1:             0.029992             0.012064             0.010846
Rotational constants in MHz :           899.138128           361.655480           325.155791

                             ****ORCA TERMINATED NORMALLY****
TOTAL RUN TIME: 0 days 0 hours 1 minutes 8 seconds 563 msec
