                         Program Version 6.0.0  -   RELEASE   -
|  1> ! RI BP86 def2-SVP D3BJ TIGHTSCF Opt
|  2> %pal
|  3> nprocs 6
|  4> end
|  5>
|  6> * xyz 0 1
|  7> C     -0.261731    1.445794    0.952921
|  8> O     -1.299401    2.238749    0.377769
|  9> P      0.042927    0.084323   -0.157142
| 10> O      0.270160    0.530731   -1.582010
| 11> C     -1.357085   -1.006891    0.009820
| 12> O     -1.198786   -2.050834   -0.950108
| 13> C      1.435863   -0.798343    0.520567
| 14> O      2.595448    0.003138    0.298464
| 15> H     -0.588507    1.102277    1.937658
| 16> H      0.625567    2.073062    1.073491
| 17> H     -1.011415    2.451725   -0.533600
| 18> H     -2.297791   -0.488932   -0.195346
| 19> H     -1.408750   -1.452496    1.006438
| 20> H     -1.065499   -1.612488   -1.815544
| 21> H      1.581831   -1.761686    0.024628
| 22> H      1.326996   -0.966550    1.594971
| 23> H      2.610170    0.208422   -0.658897
| 24> **                         ****END OF INPUT****
 Total Charge           Charge          ....    0
 Multiplicity           Mult            ....    1
 Number of Electrons    NEL             ....   74
Dispersion correction           -0.026463766
FINAL SINGLE POINT ENERGY      -761.608868628762
Dispersion correction             ... done (  0.1 sec)
Dispersion correction           -0.026173716
FINAL SINGLE POINT ENERGY      -761.616485931629
Dispersion correction             ... done (  0.1 sec)
Dispersion correction           -0.025935307
FINAL SINGLE POINT ENERGY      -761.620062015339
Dispersion correction             ... done (  0.1 sec)
FINAL SINGLE POINT ENERGY      -761.621255743573
FINAL SINGLE POINT ENERGY      -761.621985943005
FINAL SINGLE POINT ENERGY      -761.622322591641
FINAL SINGLE POINT ENERGY      -761.622451368225
FINAL SINGLE POINT ENERGY      -761.622498752578
Dispersion correction             ... done (  0.1 sec)
Dispersion correction           -0.025943475
FINAL SINGLE POINT ENERGY      -761.622514470329
Dispersion correction             ... done (  0.1 sec)
Dispersion correction           -0.025941688
FINAL SINGLE POINT ENERGY      -761.622519151257
Dispersion correction             ... done (  0.1 sec)
                    ***********************HURRAY********************

CARTESIAN COORDINATES (ANGSTROEM)
---------------------------------
  C     -0.352740    1.545108    1.011712
  O     -1.169283    2.357020    0.198813
  P      0.014379    0.029397    0.018670
  O      0.246124    0.486413   -1.438348
  C     -1.416301   -1.141569    0.000383
  O     -1.263289   -1.927824   -1.159398
  C      1.567985   -0.798665    0.583353
  O      2.631106   -0.038725    0.055284
  H     -0.884021    1.306574    1.958006
  H      0.633189    2.004993    1.274270
  H     -0.801337    2.253370   -0.711595
  H     -2.345012   -0.517186    0.010708
  H     -1.431820   -1.796150    0.898125
  H     -0.931109   -1.301578   -1.846715
  H      1.527237   -1.852031    0.207589
  H      1.644473   -0.831527    1.691382
  H      2.330415    0.222382   -0.848159

 Multiplicity           Mult            ....    1
 Number of Electrons    NEL             ....   74
 Basis Dimension        Dim             ....  161

ORBITAL ENERGIES
----------------

  NO   OCC          E(Eh)            E(eV)
   0   2.0000     -76.421681     -2079.5397
   1   2.0000     -18.794083      -511.4130
   2   2.0000     -18.793982      -511.4102
   3   2.0000     -18.793952      -511.4094
   4   2.0000     -18.753180      -510.3000
   5   2.0000      -9.984913      -271.7033
   6   2.0000      -9.984881      -271.7024
   7   2.0000      -9.984856      -271.7018
   8   2.0000      -6.386942      -173.7975
   9   2.0000      -4.607868      -125.3865
  10   2.0000      -4.607548      -125.3778
  11   2.0000      -4.607545      -125.3777
  12   2.0000      -0.949498       -25.8372
  13   2.0000      -0.941204       -25.6115
  14   2.0000      -0.941131       -25.6095
  15   2.0000      -0.870621       -23.6908
  16   2.0000      -0.679438       -18.4884
  17   2.0000      -0.624814       -17.0021
  18   2.0000      -0.624789       -17.0014
  19   2.0000      -0.526116       -14.3163
  20   2.0000      -0.482639       -13.1333
  21   2.0000      -0.482585       -13.1318
  22   2.0000      -0.442759       -12.0481
  23   2.0000      -0.419252       -11.4084
  24   2.0000      -0.419221       -11.4076
  25   2.0000      -0.419179       -11.4064
  26   2.0000      -0.408094       -11.1048
  27   2.0000      -0.408079       -11.1044
  28   2.0000      -0.345914        -9.4128
  29   2.0000      -0.314989        -8.5713
  30   2.0000      -0.300374        -8.1736
  31   2.0000      -0.300309        -8.1718
  32   2.0000      -0.262114        -7.1325
  33   2.0000      -0.262103        -7.1322
  34   2.0000      -0.258590        -7.0366
  35   2.0000      -0.227248        -6.1837
  36   2.0000      -0.227234        -6.1833
  37   0.0000      -0.016577        -0.4511
  38   0.0000       0.023714         0.6453
  39   0.0000       0.025697         0.6993
  40   0.0000       0.025759         0.7009
  41   0.0000       0.049343         1.3427

MULLIKEN ATOMIC CHARGES
-----------------------
   0 C :    0.064979
   1 O :   -0.285010
   2 P :    0.321064
   3 O :   -0.522634
   4 C :    0.064778
   5 O :   -0.284987
   6 C :    0.064700
   7 O :   -0.284870
   8 H :    0.055853
   9 H :    0.054325
  10 H :    0.177079
  11 H :    0.054398
  12 H :    0.055834
  13 H :    0.177086
  14 H :    0.054427
  15 H :    0.055847
  16 H :    0.177131
Sum of atomic charges:   -0.0000000

LOEWDIN ATOMIC CHARGES
----------------------
   0 C :   -0.081841
   1 O :   -0.132199
   2 P :    0.798355
   3 O :   -0.515582
   4 C :   -0.081881
   5 O :   -0.132164
   6 C :   -0.081924
   7 O :   -0.132059
   8 H :    0.027702
   9 H :    0.020764
  10 H :    0.071247
  11 H :    0.020768
  12 H :    0.027693
  13 H :    0.071252
  14 H :    0.020788
  15 H :    0.027716
  16 H :    0.071366

  Mayer bond orders larger than 0.100000
B(  0-C ,  1-O ) :   1.0552 B(  0-C ,  2-P ) :   0.9026 B(  0-C ,  8-H ) :   0.9286
B(  0-C ,  9-H ) :   0.9093 B(  1-O , 10-H ) :   0.9344 B(  2-P ,  3-O ) :   1.6721
B(  2-P ,  4-C ) :   0.9026 B(  2-P ,  6-C ) :   0.9026 B(  4-C ,  5-O ) :   1.0551
B(  4-C , 11-H ) :   0.9094 B(  4-C , 12-H ) :   0.9285 B(  5-O , 13-H ) :   0.9344
B(  6-C ,  7-O ) :   1.0550 B(  6-C , 14-H ) :   0.9093 B(  6-C , 15-H ) :   0.9285
B(  7-O , 16-H ) :   0.9346

Dispersion correction           -0.025939593
FINAL SINGLE POINT ENERGY      -761.622520348722

DIPOLE MOMENT
-------------

Method             : SCF
Type of density    : Electron Density
Multiplicity       :   1
Irrep              :   0
Energy             :  -761.5965807552602200 Eh
Relativity type    :
Basis              : AO
                                X                 Y                 Z
Electronic contribution:      0.369395091       0.730920151      -2.326015281
Nuclear contribution   :     -0.513647708      -1.018621212       3.239730402
                        -----------------------------------------
Total Dipole Moment    :     -0.144252617      -0.287701061       0.913715121
                        -----------------------------------------
Magnitude (a.u.)       :      0.968739408
Magnitude (Debye)      :      2.462339889

Rotational constants in cm-1:             0.055511             0.055481             0.035269
Rotational constants in MHz :          1664.191533          1663.266681          1057.337666

                             ****ORCA TERMINATED NORMALLY****
TOTAL RUN TIME: 0 days 0 hours 0 minutes 51 seconds 59 msec
