                         Program Version 6.0.0  -   RELEASE   -
|  1> ! RIJONX B3LYP def2-SVP D3BJ TIGHTSCF Opt
|  2> %pal
|  3> nprocs 6
|  4> end
|  5>
|  6> * xyz 0 1
|  7> C      4.347487   -1.500709    0.366468
|  8> C      3.110497   -2.381526    0.490950
|  9> C      1.950506   -1.851809   -0.351575
| 10> C      1.610596   -0.389510   -0.005306
| 11> C      2.874450    0.482624   -0.148946
| 12> C      4.029911   -0.047849    0.698162
| 13> P      0.253404    0.256272   -1.097790
| 14> C     -1.208829   -0.817736   -0.695416
| 15> C     -1.589000   -0.902979    0.787786
| 16> C     -2.767229   -1.852885    1.009128
| 17> C     -3.973497   -1.459863    0.163114
| 18> C     -3.610642   -1.357249   -1.314205
| 19> C     -2.431140   -0.412050   -1.541034
| 20> C     -0.195720    1.879957   -0.420147
| 21> C     -0.666112    2.854679   -1.315217
| 22> C     -1.028082    4.129635   -0.871618
| 23> C     -0.922907    4.452726    0.477399
| 24> C     -0.455708    3.501442    1.379542
| 25> C     -0.093985    2.226204    0.933054
| 26> H      5.133202   -1.869655    1.035203
| 27> H      4.740764   -1.565038   -0.655530
| 28> H      3.353979   -3.403685    0.179633
| 29> H      2.802282   -2.433340    1.542522
| 30> H      1.084436   -2.502180   -0.184136
| 31> H      2.210573   -1.942994   -1.414767
| 32> H      1.290255   -0.359384    1.041202
| 33> H      2.672889    1.517376    0.151826
| 34> H      3.193261    0.521397   -1.199559
| 35> H      3.772759    0.038629    1.761045
| 36> H      4.920142    0.569767    0.533837
| 37> H     -0.923486   -1.825930   -1.022691
| 38> H     -1.868140    0.083212    1.175197
| 39> H     -0.745803   -1.255375    1.391093
| 40> H     -2.462450   -2.876871    0.760225
| 41> H     -3.045774   -1.851744    2.069061
| 42> H     -4.773961   -2.196163    0.296576
| 43> H     -4.364467   -0.495664    0.510713
| 44> H     -4.478697   -1.005487   -1.883128
| 45> H     -3.358986   -2.353152   -1.699166
| 46> H     -2.748378    0.609165   -1.294084
| 47> H     -2.178887   -0.413422   -2.609084
| 48> H     -0.755431    2.629425   -2.376523
| 49> H     -1.389816    4.867450   -1.582684
| 50> H     -1.203117    5.443416    0.824632
| 51> H     -0.371544    3.749125    2.434457
| 52> H      0.260395    1.511748    1.669778
| 53> **                         ****END OF INPUT****
 Total Charge           Charge          ....    0
 Multiplicity           Mult            ....    1
 Number of Electrons    NEL             ....  150
Dispersion correction           -0.102340889
FINAL SINGLE POINT ENERGY     -1042.507239286419
Dispersion correction             ... done (  0.1 sec)
Dispersion correction           -0.102987228
FINAL SINGLE POINT ENERGY     -1042.511071627393
Dispersion correction             ... done (  0.1 sec)
Dispersion correction           -0.102867322
FINAL SINGLE POINT ENERGY     -1042.511715229642
Dispersion correction             ... done (  0.1 sec)
FINAL SINGLE POINT ENERGY     -1042.511771990107
FINAL SINGLE POINT ENERGY     -1042.511766074516
FINAL SINGLE POINT ENERGY     -1042.511865213420
FINAL SINGLE POINT ENERGY     -1042.511865150575
Dispersion correction             ... done (  0.1 sec)
Dispersion correction           -0.102856050
FINAL SINGLE POINT ENERGY     -1042.511871380302
Dispersion correction             ... done (  0.1 sec)
Dispersion correction           -0.102844074
FINAL SINGLE POINT ENERGY     -1042.511871672964
Dispersion correction             ... done (  0.1 sec)
                    ***********************HURRAY********************

CARTESIAN COORDINATES (ANGSTROEM)
---------------------------------
  C      4.343351   -1.504936    0.422429
  C      3.090872   -2.375931    0.559476
  C      1.944642   -1.864514   -0.322264
  C      1.621958   -0.387315   -0.037254
  C      2.886645    0.479331   -0.172243
  C      4.027759   -0.034386    0.713007
  P      0.300730    0.234494   -1.214480
  C     -1.192277   -0.823556   -0.745272
  C     -1.536424   -0.918209    0.746584
  C     -2.744181   -1.833485    0.991702
  C     -3.962326   -1.389483    0.175943
  C     -3.624343   -1.295615   -1.315396
  C     -2.419169   -0.379614   -1.560220
  C     -0.171323    1.859037   -0.458634
  C     -0.744397    2.815576   -1.315354
  C     -1.162276    4.059371   -0.833899
  C     -0.994858    4.378340    0.516271
  C     -0.411643    3.444801    1.378557
  C     -0.007928    2.197031    0.896287
  H      5.140560   -1.869403    1.092048
  H      4.734278   -1.593518   -0.608152
  H      3.320349   -3.424995    0.306966
  H      2.761297   -2.373703    1.615084
  H      1.051626   -2.491562   -0.168050
  H      2.222468   -1.973221   -1.387064
  H      1.264919   -0.318036    1.005220
  H      2.656051    1.528185    0.073359
  H      3.210835    0.471864   -1.229036
  H      3.740245    0.073215    1.775517
  H      4.926393    0.589028    0.569287
  H     -0.909598   -1.832289   -1.100936
  H     -1.765275    0.092165    1.127373
  H     -0.671318   -1.283414    1.323128
  H     -2.476982   -2.869152    0.710456
  H     -2.987887   -1.855929    2.067584
  H     -4.806931   -2.080461    0.337467
  H     -4.295807   -0.397684    0.533907
  H     -4.496145   -0.933695   -1.886372
  H     -3.395186   -2.306582   -1.700474
  H     -2.686807    0.653404   -1.274168
  H     -2.167639   -0.351454   -2.633621
  H     -0.857785    2.577965   -2.376912
  H     -1.609890    4.785149   -1.518041
  H     -1.312025    5.353354    0.895113
  H     -0.272905    3.688053    2.435448
  H      0.438346    1.481776    1.589624

 Multiplicity           Mult            ....    1
 Number of Electrons    NEL             ....  150
 Basis Dimension        Dim             ....  405

ORBITAL ENERGIES
----------------

  NO   OCC          E(Eh)            E(eV)
   0   2.0000     -77.033198     -2096.1799
   1   2.0000     -10.189853      -277.2800
   2   2.0000     -10.189576      -277.2725
   3   2.0000     -10.189174      -277.2615
   4   2.0000     -10.188681      -277.2481
   5   2.0000     -10.188005      -277.2297
   6   2.0000     -10.186678      -277.1936
   7   2.0000     -10.182249      -277.0731
   8   2.0000     -10.181934      -277.0645
   9   2.0000     -10.179954      -277.0106
  10   2.0000     -10.177542      -276.9450
  11   2.0000     -10.175938      -276.9014
  12   2.0000     -10.175827      -276.8983
  13   2.0000     -10.175678      -276.8943
  14   2.0000     -10.175602      -276.8922
  15   2.0000     -10.175530      -276.8903
  16   2.0000     -10.175219      -276.8818
  17   2.0000     -10.174758      -276.8692
  18   2.0000     -10.174271      -276.8560
  19   2.0000      -6.529427      -177.6748
  20   2.0000      -4.695044      -127.7586
  21   2.0000      -4.694573      -127.7458
  22   2.0000      -4.691827      -127.6711
  23   2.0000      -0.844889       -22.9906
  24   2.0000      -0.824418       -22.4336
  25   2.0000      -0.818132       -22.2625
  26   2.0000      -0.755161       -20.5490
  27   2.0000      -0.735835       -20.0231
  28   2.0000      -0.731799       -19.9133
  29   2.0000      -0.728123       -19.8132
  30   2.0000      -0.726970       -19.7819
  31   2.0000      -0.724031       -19.7019
  32   2.0000      -0.632649       -17.2152
  33   2.0000      -0.603214       -16.4143
  34   2.0000      -0.600888       -16.3510
  35   2.0000      -0.592735       -16.1291
  36   2.0000      -0.587948       -15.9989
  37   2.0000      -0.587057       -15.9746
  38   2.0000      -0.547852       -14.9078
  39   2.0000      -0.544698       -14.8220
  40   2.0000      -0.532557       -14.4916
  41   2.0000      -0.500107       -13.6086
  42   2.0000      -0.471625       -12.8336
  43   2.0000      -0.468736       -12.7549
  44   2.0000      -0.449507       -12.2317
  45   2.0000      -0.442294       -12.0354
  46   2.0000      -0.439888       -11.9699
  47   2.0000      -0.433764       -11.8033
  48   2.0000      -0.431732       -11.7480
  49   2.0000      -0.429942       -11.6993
  50   2.0000      -0.426483       -11.6052
  51   2.0000      -0.417323       -11.3559
  52   2.0000      -0.415235       -11.2991
  53   2.0000      -0.390706       -10.6316
  54   2.0000      -0.379641       -10.3306
  55   2.0000      -0.377468       -10.2714
  56   2.0000      -0.375986       -10.2311
  57   2.0000      -0.374275       -10.1845
  58   2.0000      -0.365780        -9.9534
  59   2.0000      -0.351167        -9.5557
  60   2.0000      -0.348166        -9.4741
  61   2.0000      -0.345186        -9.3930
  62   2.0000      -0.341688        -9.2978
  63   2.0000      -0.338345        -9.2068
  64   2.0000      -0.336388        -9.1536
  65   2.0000      -0.326839        -8.8937
  66   2.0000      -0.314503        -8.5580
  67   2.0000      -0.308415        -8.3924
  68   2.0000      -0.303813        -8.2672
  69   2.0000      -0.299259        -8.1433
  70   2.0000      -0.290761        -7.9120
  71   2.0000      -0.277606        -7.5541
  72   2.0000      -0.253510        -6.8984
  73   2.0000      -0.252855        -6.8805
  74   2.0000      -0.214534        -5.8378
  75   0.0000      -0.017641        -0.4800
  76   0.0000      -0.008287        -0.2255
  77   0.0000       0.045826         1.2470
  78   0.0000       0.052125         1.4184
  79   0.0000       0.058652         1.5960

MULLIKEN ATOMIC CHARGES
-----------------------
   0 C :    0.018093
   1 C :    0.040241
   2 C :    0.057516
   3 C :   -0.264637
   4 C :    0.072528
   5 C :    0.042907
   6 P :    0.272082
   7 C :   -0.242820
   8 C :    0.059682
   9 C :    0.040019
  10 C :    0.018118
  11 C :    0.039159
  12 C :    0.064930
  13 C :   -0.135624
  14 C :    0.023468
  15 C :    0.020393
  16 C :    0.022305
  17 C :    0.019380
  18 C :    0.019876
  19 H :   -0.004924
  20 H :   -0.011156
  21 H :   -0.004672
  22 H :   -0.015561
  23 H :    0.002237
  24 H :   -0.002686
  25 H :    0.013846
  26 H :    0.003178
  27 H :   -0.004513
  28 H :   -0.016800
  29 H :   -0.003926
  30 H :    0.016014
  31 H :    0.002678
  32 H :   -0.003800
  33 H :   -0.016238
  34 H :   -0.007131
  35 H :   -0.005691
  36 H :   -0.010673
  37 H :   -0.005756
  38 H :   -0.014562
  39 H :    0.001360
  40 H :   -0.001481
  41 H :   -0.018638
  42 H :   -0.017446
  43 H :   -0.016690
  44 H :   -0.020948
  45 H :   -0.023635
Sum of atomic charges:   -0.0000000

LOEWDIN ATOMIC CHARGES
----------------------
   0 C :   -0.034296
   1 C :   -0.031759
   2 C :   -0.037749
   3 C :   -0.167273
   4 C :   -0.038461
   5 C :   -0.032234
   6 P :    0.487950
   7 C :   -0.162688
   8 C :   -0.040182
   9 C :   -0.031428
  10 C :   -0.034489
  11 C :   -0.031981
  12 C :   -0.039274
  13 C :   -0.171648
  14 C :   -0.029835
  15 C :   -0.027321
  16 C :   -0.023665
  17 C :   -0.028118
  18 C :   -0.031894
  19 H :    0.019232
  20 H :    0.017545
  21 H :    0.020034
  22 H :    0.015988
  23 H :    0.017402
  24 H :    0.017763
  25 H :    0.006380
  26 H :    0.020250
  27 H :    0.017780
  28 H :    0.015392
  29 H :    0.020432
  30 H :    0.015498
  31 H :    0.020796
  32 H :    0.016151
  33 H :    0.015307
  34 H :    0.018903
  35 H :    0.018983
  36 H :    0.017478
  37 H :    0.019707
  38 H :    0.015785
  39 H :    0.018506
  40 H :    0.018026
  41 H :    0.022438
  42 H :    0.026852
  43 H :    0.026475
  44 H :    0.025951
  45 H :    0.021288

  Mayer bond orders larger than 0.100000
B(  0-C ,  1-C ) :   1.0965 B(  0-C ,  5-C ) :   1.0944 B(  0-C , 19-H ) :   0.9365
B(  0-C , 20-H ) :   0.9320 B(  1-C ,  2-C ) :   1.0994 B(  1-C , 21-H ) :   0.9346
B(  1-C , 22-H ) :   0.9288 B(  2-C ,  3-C ) :   1.0432 B(  2-C , 23-H ) :   0.9283
B(  2-C , 24-H ) :   0.9272 B(  3-C ,  4-C ) :   1.0415 B(  3-C ,  6-P ) :   0.9578
B(  3-C , 25-H ) :   0.8864 B(  4-C ,  5-C ) :   1.0968 B(  4-C , 26-H ) :   0.9299
B(  4-C , 27-H ) :   0.9254 B(  5-C , 28-H ) :   0.9294 B(  5-C , 29-H ) :   0.9348
B(  6-P ,  7-C ) :   0.9527 B(  6-P , 13-C ) :   0.9194 B(  7-C ,  8-C ) :   1.0250
B(  7-C , 12-C ) :   1.0459 B(  7-C , 30-H ) :   0.9048 B(  8-C ,  9-C ) :   1.0924
B(  8-C , 31-H ) :   0.9254 B(  8-C , 32-H ) :   0.9285 B(  9-C , 10-C ) :   1.0966
B(  9-C , 33-H ) :   0.9298 B(  9-C , 34-H ) :   0.9336 B( 10-C , 11-C ) :   1.0948
B( 10-C , 35-H ) :   0.9358 B( 10-C , 36-H ) :   0.9324 B( 11-C , 12-C ) :   1.0970
B( 11-C , 37-H ) :   0.9345 B( 11-C , 38-H ) :   0.9313 B( 12-C , 39-H ) :   0.9274
B( 12-C , 40-H ) :   0.9272 B( 13-C , 14-C ) :   1.3897 B( 13-C , 18-C ) :   1.3645
B( 14-C , 15-C ) :   1.3887 B( 14-C , 41-H ) :   0.9785 B( 15-C , 16-C ) :   1.3829
B( 15-C , 42-H ) :   0.9849 B( 16-C , 17-C ) :   1.3762 B( 16-C , 43-H ) :   0.9847
B( 17-C , 18-C ) :   1.4024 B( 17-C , 44-H ) :   0.9824 B( 18-C , 45-H ) :   0.9758

Dispersion correction           -0.102849506
FINAL SINGLE POINT ENERGY     -1042.511871987415

DIPOLE MOMENT
-------------

Method             : SCF
Type of density    : Electron Density
Multiplicity       :   1
Irrep              :   0
Energy             : -1042.4090224812339329 Eh
Relativity type    :
Basis              : AO
                                X                 Y                 Z
Electronic contribution:     -0.781891823      13.333759641      -5.708841947
Nuclear contribution   :      0.671943846     -13.381990136       6.156790656
                        -----------------------------------------
Total Dipole Moment    :     -0.109947977      -0.048230495       0.447948708
                        -----------------------------------------
Magnitude (a.u.)       :      0.463759403
Magnitude (Debye)      :      1.178782722

Rotational constants in cm-1:             0.012771             0.009148             0.006256
Rotational constants in MHz :           382.852023           274.260300           187.551621

                             ****ORCA TERMINATED NORMALLY****
TOTAL RUN TIME: 0 days 0 hours 11 minutes 18 seconds 758 msec
