                         Program Version 6.0.0  -   RELEASE   -
|  1> ! RI BP86 def2-SVP D3BJ TIGHTSCF Opt
|  2> %pal
|  3> nprocs 6
|  4> end
|  5>
|  6> * xyz 0 1
|  7> C      3.906602   -1.546212   -0.975495
|  8> C      2.920960   -2.478729   -0.668239
|  9> C      1.780685   -2.086757    0.040607
| 10> C      1.591211   -0.753031    0.439062
| 11> C      2.614025    0.164509    0.141276
| 12> C      3.755561   -0.224887   -0.567138
| 13> P      0.132872   -0.257722    1.426414
| 14> C     -0.199133    1.444748    0.851524
| 15> C     -0.388091    1.773247   -0.499513
| 16> C     -0.637395    3.091716   -0.888816
| 17> C     -0.701508    4.101729    0.067633
| 18> C     -0.515944    3.794602    1.413249
| 19> C     -0.266557    2.475658    1.802637
| 20> C     -1.273721   -1.129239    0.669021
| 21> C     -2.408045   -1.396367    1.434433
| 22> C     -3.485791   -2.053329    0.844201
| 23> C     -3.407022   -2.424418   -0.491147
| 24> C     -2.248316   -2.120939   -1.182995
| 25> N     -1.189157   -1.486591   -0.635215
| 26> H      4.792303   -1.849647   -1.526494
| 27> H      3.034359   -3.514192   -0.977354
| 28> H      1.032677   -2.842705    0.270297
| 29> H      2.539590    1.202235    0.459483
| 30> H      4.526063    0.507017   -0.794068
| 31> H     -0.338017    1.001549   -1.266293
| 32> H     -0.780299    3.325308   -1.940512
| 33> H     -0.895387    5.126929   -0.236078
| 34> H     -0.564425    4.580898    2.161922
| 35> H     -0.122782    2.262275    2.859840
| 36> H     -2.463550   -1.097164    2.476379
| 37> H     -4.378921   -2.269017    1.423415
| 38> H     -4.227983   -2.934735   -0.981619
| 39> H     -2.134863   -2.386738   -2.230009
| 40> **                         ****END OF INPUT****
 Total Charge           Charge          ....    0
 Multiplicity           Mult            ....    1
 Number of Electrons    NEL             ....  138
Dispersion correction           -0.078262764
FINAL SINGLE POINT ENERGY     -1051.826182388364
Dispersion correction             ... done (  0.1 sec)
Dispersion correction           -0.078435537
FINAL SINGLE POINT ENERGY     -1051.832071823251
Dispersion correction             ... done (  0.1 sec)
Dispersion correction           -0.078548946
FINAL SINGLE POINT ENERGY     -1051.833021030416
Dispersion correction             ... done (  0.1 sec)
FINAL SINGLE POINT ENERGY     -1051.833263129841
FINAL SINGLE POINT ENERGY     -1051.833311323089
FINAL SINGLE POINT ENERGY     -1051.833342020192
FINAL SINGLE POINT ENERGY     -1051.833347272724
FINAL SINGLE POINT ENERGY     -1051.833361226776
Dispersion correction             ... done (  0.1 sec)
Dispersion correction           -0.078453613
FINAL SINGLE POINT ENERGY     -1051.833364068124
Dispersion correction             ... done (  0.1 sec)
Dispersion correction           -0.078445063
FINAL SINGLE POINT ENERGY     -1051.833366084755
Dispersion correction             ... done (  0.1 sec)
                    ***********************HURRAY********************

CARTESIAN COORDINATES (ANGSTROEM)
---------------------------------
  C      3.836653   -1.590307   -0.956630
  C      2.873732   -2.524318   -0.535940
  C      1.744607   -2.101436    0.180134
  C      1.553864   -0.734095    0.477547
  C      2.527966    0.196171    0.058498
  C      3.660951   -0.230453   -0.653693
  P      0.128912   -0.219557    1.534570
  C     -0.186034    1.495324    0.900604
  C     -0.363581    1.772202   -0.473220
  C     -0.596645    3.087488   -0.899762
  C     -0.651194    4.137219    0.036259
  C     -0.474375    3.868228    1.402758
  C     -0.244190    2.549778    1.833886
  C     -1.267008   -1.119935    0.665516
  C     -2.338605   -1.587603    1.454300
  C     -3.410875   -2.238314    0.824492
  C     -3.369976   -2.408217   -0.567181
  C     -2.254276   -1.912456   -1.266302
  N     -1.229366   -1.283558   -0.671785
  H      4.721780   -1.923084   -1.520202
  H      3.001733   -3.592578   -0.770538
  H      0.997090   -2.843097    0.502480
  H      2.394376    1.265901    0.280415
  H      4.409054    0.509197   -0.979104
  H     -0.325518    0.940322   -1.193713
  H     -0.736572    3.298337   -1.971568
  H     -0.831958    5.169018   -0.303109
  H     -0.515212    4.687045    2.137722
  H     -0.104533    2.332119    2.904876
  H     -2.318295   -1.440215    2.545006
  H     -4.262545   -2.613448    1.413156
  H     -4.183305   -2.917162   -1.106025
  H     -2.186655   -2.028517   -2.363039

 Multiplicity           Mult            ....    1
 Number of Electrons    NEL             ....  138
 Basis Dimension        Dim             ....  340

ORBITAL ENERGIES
----------------

  NO   OCC          E(Eh)            E(eV)
   0   2.0000     -76.342174     -2077.3762
   1   2.0000     -14.018136      -381.4529
   2   2.0000      -9.958391      -270.9816
   3   2.0000      -9.957963      -270.9699
   4   2.0000      -9.945006      -270.6174
   5   2.0000      -9.937370      -270.4096
   6   2.0000      -9.936387      -270.3828
   7   2.0000      -9.923397      -270.0294
   8   2.0000      -9.922535      -270.0059
   9   2.0000      -9.922481      -270.0044
  10   2.0000      -9.920981      -269.9636
  11   2.0000      -9.919872      -269.9335
  12   2.0000      -9.919025      -269.9104
  13   2.0000      -9.917179      -269.8602
  14   2.0000      -9.915163      -269.8053
  15   2.0000      -9.914267      -269.7809
  16   2.0000      -9.913957      -269.7725
  17   2.0000      -9.913694      -269.7653
  18   2.0000      -9.913460      -269.7589
  19   2.0000      -6.311359      -171.7408
  20   2.0000      -4.532856      -123.3453
  21   2.0000      -4.532646      -123.3396
  22   2.0000      -4.529180      -123.2453
  23   2.0000      -0.861484       -23.4422
  24   2.0000      -0.771728       -20.9998
  25   2.0000      -0.763476       -20.7752
  26   2.0000      -0.731146       -19.8955
  27   2.0000      -0.701752       -19.0956
  28   2.0000      -0.677396       -18.4329
  29   2.0000      -0.667978       -18.1766
  30   2.0000      -0.662895       -18.0383
  31   2.0000      -0.659956       -17.9583
  32   2.0000      -0.593038       -16.1374
  33   2.0000      -0.572631       -15.5821
  34   2.0000      -0.553263       -15.0550
  35   2.0000      -0.539918       -14.6919
  36   2.0000      -0.535074       -14.5601
  37   2.0000      -0.528404       -14.3786
  38   2.0000      -0.502087       -13.6625
  39   2.0000      -0.468746       -12.7552
  40   2.0000      -0.460314       -12.5258
  41   2.0000      -0.447899       -12.1879
  42   2.0000      -0.437880       -11.9153
  43   2.0000      -0.411757       -11.2045
  44   2.0000      -0.404051       -10.9948
  45   2.0000      -0.401068       -10.9136
  46   2.0000      -0.395453       -10.7608
  47   2.0000      -0.390106       -10.6153
  48   2.0000      -0.377290       -10.2666
  49   2.0000      -0.376119       -10.2347
  50   2.0000      -0.372498       -10.1362
  51   2.0000      -0.367752       -10.0071
  52   2.0000      -0.357808        -9.7364
  53   2.0000      -0.352439        -9.5904
  54   2.0000      -0.336331        -9.1520
  55   2.0000      -0.327137        -8.9018
  56   2.0000      -0.324722        -8.8361
  57   2.0000      -0.303378        -8.2553
  58   2.0000      -0.301403        -8.2016
  59   2.0000      -0.295274        -8.0348
  60   2.0000      -0.286943        -7.8081
  61   2.0000      -0.272021        -7.4021
  62   2.0000      -0.250039        -6.8039
  63   2.0000      -0.245858        -6.6901
  64   2.0000      -0.233450        -6.3525
  65   2.0000      -0.228808        -6.2262
  66   2.0000      -0.223951        -6.0940
  67   2.0000      -0.214087        -5.8256
  68   2.0000      -0.194735        -5.2990
  69   0.0000      -0.079392        -2.1604
  70   0.0000      -0.064499        -1.7551
  71   0.0000      -0.053043        -1.4434
  72   0.0000      -0.044562        -1.2126
  73   0.0000      -0.041332        -1.1247

MULLIKEN ATOMIC CHARGES
-----------------------
   0 C :    0.000759
   1 C :   -0.005158
   2 C :    0.002275
   3 C :   -0.093733
   4 C :   -0.011974
   5 C :   -0.002312
   6 P :    0.311023
   7 C :   -0.170842
   8 C :    0.022475
   9 C :    0.003004
  10 C :    0.005210
  11 C :   -0.005056
  12 C :    0.011741
  13 C :   -0.190634
  14 C :    0.044325
  15 C :    0.035308
  16 C :   -0.018149
  17 C :    0.015813
  18 N :   -0.061763
  19 H :   -0.000204
  20 H :   -0.000738
  21 H :   -0.004247
  22 H :    0.009213
  23 H :   -0.000079
  24 H :    0.018418
  25 H :    0.003043
  26 H :    0.004922
  27 H :    0.004218
  28 H :   -0.002057
  29 H :    0.011764
  30 H :    0.020586
  31 H :    0.017324
  32 H :    0.025525
Sum of atomic charges:   -0.0000000

LOEWDIN ATOMIC CHARGES
----------------------
   0 C :   -0.035479
   1 C :   -0.031697
   2 C :   -0.032786
   3 C :   -0.163521
   4 C :   -0.037841
   5 C :   -0.031720
   6 P :    0.482698
   7 C :   -0.174430
   8 C :   -0.019880
   9 C :   -0.031801
  10 C :   -0.025852
  11 C :   -0.034697
  12 C :   -0.036531
  13 C :   -0.130339
  14 C :   -0.046562
  15 C :   -0.004236
  16 C :   -0.045093
  17 C :    0.014402
  18 N :   -0.070913
  19 H :    0.030913
  20 H :    0.031517
  21 H :    0.028068
  22 H :    0.032295
  23 H :    0.031810
  24 H :    0.033962
  25 H :    0.032964
  26 H :    0.032698
  27 H :    0.032991
  28 H :    0.029221
  29 H :    0.035567
  30 H :    0.038760
  31 H :    0.037839
  32 H :    0.027672

  Mayer bond orders larger than 0.100000
B(  0-C ,  1-C ) :   1.3735 B(  0-C ,  5-C ) :   1.3841 B(  0-C , 19-H ) :   0.9756
B(  1-C ,  2-C ) :   1.4143 B(  1-C , 20-H ) :   0.9737 B(  2-C ,  3-C ) :   1.3670
B(  2-C , 21-H ) :   0.9694 B(  3-C ,  4-C ) :   1.3892 B(  3-C ,  6-P ) :   0.9182
B(  4-C ,  5-C ) :   1.3926 B(  4-C , 22-H ) :   0.9683 B(  5-C , 23-H ) :   0.9741
B(  6-P ,  7-C ) :   0.9388 B(  6-P , 13-C ) :   0.9049 B(  7-C ,  8-C ) :   1.3602
B(  7-C , 12-C ) :   1.3857 B(  8-C ,  9-C ) :   1.3971 B(  8-C , 24-H ) :   0.9568
B(  9-C , 10-C ) :   1.3637 B(  9-C , 25-H ) :   0.9759 B( 10-C , 11-C ) :   1.3927
B( 10-C , 26-H ) :   0.9755 B( 11-C , 12-C ) :   1.3760 B( 11-C , 27-H ) :   0.9761
B( 12-C , 28-H ) :   0.9756 B( 13-C , 14-C ) :   1.3559 B( 13-C , 18-N ) :   1.4624
B( 14-C , 15-C ) :   1.4013 B( 14-C , 29-H ) :   0.9603 B( 15-C , 16-C ) :   1.4111
B( 15-C , 30-H ) :   0.9705 B( 16-C , 17-C ) :   1.3613 B( 16-C , 31-H ) :   0.9630
B( 17-C , 18-N ) :   1.5245 B( 17-C , 32-H ) :   0.9635

Dispersion correction           -0.078439840
FINAL SINGLE POINT ENERGY     -1051.833366466719

DIPOLE MOMENT
-------------

Method             : SCF
Type of density    : Electron Density
Multiplicity       :   1
Irrep              :   0
Energy             : -1051.7549266264873040 Eh
Relativity type    :
Basis              : AO
                                X                 Y                 Z
Electronic contribution:     -0.805652040      -1.891684244       4.707774815
Nuclear contribution   :     -0.035335743       1.725487515      -4.911930707
                        -----------------------------------------
Total Dipole Moment    :     -0.840987783      -0.166196729      -0.204155892
                        -----------------------------------------
Magnitude (a.u.)       :      0.881227231
Magnitude (Debye)      :      2.239901614

Rotational constants in cm-1:             0.012076             0.011818             0.007197
Rotational constants in MHz :           362.022106           354.292372           215.766216

                             ****ORCA TERMINATED NORMALLY****
TOTAL RUN TIME: 0 days 0 hours 2 minutes 48 seconds 492 msec
