                         Program Version 6.0.0  -   RELEASE   -
|  1> ! RIJCOSX M062X def2-TZVP D3ZERO NormalSCF
|  2> %pal
|  3> nprocs 6
|  4> end
|  5>
|  6> * xyz 0 1
|  7>   C          -0.17646433861530     -2.70797405919609      0.03895245282321
|  8>   P          -0.08431519990748     -1.28059606539080      1.23909012608782
|  9>   C           1.40987582241233     -0.37053830693112      0.64263627129941
| 10>   C           1.65894759352244      0.90331416681243      1.20614681995911
| 11>   C           2.78875036184193      1.64434674606661      0.83507580620885
| 12>   C           3.70547348898653      1.11750593086068     -0.09327113730684
| 13>   C           3.47755202697690     -0.15139979752417     -0.64734064860738
| 14>   C           2.33648624296922     -0.88971491341066     -0.28549581109305
| 15>   C          -1.42481863791247     -0.21080292423170      0.52206911573479
| 16>   C          -1.25525736038980      0.56414173384714     -0.64592305419425
| 17>   C          -2.31820588161195      1.32826413866575     -1.15138971149508
| 18>   C          -3.56427928855896      1.32584652094553     -0.49926597897402
| 19>   C          -3.74220008419650      0.55907790196794      0.66401162032056
| 20>   C          -2.67550663301149     -0.19923550662794      1.17509429852263
| 21>   H          -0.10479947146984     -2.38620033270428     -1.02025663948858
| 22>   H          -1.15229340988885     -3.20962430798550      0.19214420679018
| 23>   H           0.62366469608023     -3.44239189889125      0.26172507650873
| 24>   H           0.94860095707577      1.31986654996759      1.93895255908584
| 25>   H           2.96010559503757      2.63822944273706      1.27695123906235
| 26>   H           4.59685961818788      1.69588132884390     -0.38065191977810
| 27>   H           4.19024054114288     -0.57244002793123     -1.37361985505746
| 28>   H           2.17330392744481     -1.87790652045439     -0.74009292877309
| 29>   H          -0.27963636115174      0.57264021256107     -1.15652126022139
| 30>   H          -2.17406607044638      1.93133924155220     -2.06150355360087
| 31>   H          -4.39608201502885      1.92794585565589     -0.89638912090883
| 32>   H          -4.71353013947191      0.55888350322515      1.18263241404773
| 33>   H          -2.80840398001697     -0.78845661242979      2.09710261304773
| 34> **                         ****END OF INPUT****

CARTESIAN COORDINATES (ANGSTROEM)
---------------------------------
  C     -0.176464   -2.707974    0.038952
  P     -0.084315   -1.280596    1.239090
  C      1.409876   -0.370538    0.642636
  C      1.658948    0.903314    1.206147
  C      2.788750    1.644347    0.835076
  C      3.705473    1.117506   -0.093271
  C      3.477552   -0.151400   -0.647341
  C      2.336486   -0.889715   -0.285496
  C     -1.424819   -0.210803    0.522069
  C     -1.255257    0.564142   -0.645923
  C     -2.318206    1.328264   -1.151390
  C     -3.564279    1.325847   -0.499266
  C     -3.742200    0.559078    0.664012
  C     -2.675507   -0.199236    1.175094
  H     -0.104799   -2.386200   -1.020257
  H     -1.152293   -3.209624    0.192144
  H      0.623665   -3.442392    0.261725
  H      0.948601    1.319867    1.938953
  H      2.960106    2.638229    1.276951
  H      4.596860    1.695881   -0.380652
  H      4.190241   -0.572440   -1.373620
  H      2.173304   -1.877907   -0.740093
  H     -0.279636    0.572640   -1.156521
  H     -2.174066    1.931339   -2.061504
  H     -4.396082    1.927946   -0.896389
  H     -4.713530    0.558884    1.182632
  H     -2.808404   -0.788457    2.097103

 Total Charge           Charge          ....    0
 Multiplicity           Mult            ....    1
 Number of Electrons    NEL             ....  106
 Basis Dimension        Dim             ....  518

ORBITAL ENERGIES
----------------

  NO   OCC          E(Eh)            E(eV)
   0   2.0000     -78.028931     -2123.2752
   1   2.0000     -10.554684      -287.2075
   2   2.0000     -10.552989      -287.1614
   3   2.0000     -10.552256      -287.1415
   4   2.0000     -10.551334      -287.1164
   5   2.0000     -10.551167      -287.1118
   6   2.0000     -10.551128      -287.1108
   7   2.0000     -10.550919      -287.1051
   8   2.0000     -10.550367      -287.0901
   9   2.0000     -10.550098      -287.0828
  10   2.0000     -10.549825      -287.0753
  11   2.0000     -10.549734      -287.0729
  12   2.0000     -10.549359      -287.0627
  13   2.0000     -10.540652      -286.8257
  14   2.0000      -6.844724      -186.2544
  15   2.0000      -4.959336      -134.9504
  16   2.0000      -4.958993      -134.9411
  17   2.0000      -4.958816      -134.9362
  18   2.0000      -0.958569       -26.0840
  19   2.0000      -0.952746       -25.9255
  20   2.0000      -0.863296       -23.4915
  21   2.0000      -0.841382       -22.8952
  22   2.0000      -0.840396       -22.8683
  23   2.0000      -0.834231       -22.7006
  24   2.0000      -0.800376       -21.7793
  25   2.0000      -0.708686       -19.2843
  26   2.0000      -0.686267       -18.6743
  27   2.0000      -0.684463       -18.6252
  28   2.0000      -0.675469       -18.3805
  29   2.0000      -0.628167       -17.0933
  30   2.0000      -0.588980       -16.0270
  31   2.0000      -0.570232       -15.5168
  32   2.0000      -0.525409       -14.2971
  33   2.0000      -0.517767       -14.0892
  34   2.0000      -0.516615       -14.0578
  35   2.0000      -0.512234       -13.9386
  36   2.0000      -0.491638       -13.3782
  37   2.0000      -0.488343       -13.2885
  38   2.0000      -0.484379       -13.1806
  39   2.0000      -0.476683       -12.9712
  40   2.0000      -0.455812       -12.4033
  41   2.0000      -0.444281       -12.0895
  42   2.0000      -0.435614       -11.8537
  43   2.0000      -0.433580       -11.7983
  44   2.0000      -0.405558       -11.0358
  45   2.0000      -0.402729       -10.9588
  46   2.0000      -0.383953       -10.4479
  47   2.0000      -0.372485       -10.1358
  48   2.0000      -0.325926        -8.8689
  49   2.0000      -0.313347        -8.5266
  50   2.0000      -0.310110        -8.4385
  51   2.0000      -0.306707        -8.3459
  52   2.0000      -0.269174        -7.3246
  53   0.0000       0.000317         0.0086
  54   0.0000       0.008284         0.2254
  55   0.0000       0.008888         0.2419
  56   0.0000       0.022877         0.6225
  57   0.0000       0.067651         1.8409

MULLIKEN ATOMIC CHARGES
-----------------------
   0 C :   -0.550306
   1 P :    0.172456
   2 C :   -0.062715
   3 C :   -0.152002
   4 C :   -0.146056
   5 C :   -0.140936
   6 C :   -0.161240
   7 C :   -0.164033
   8 C :   -0.085556
   9 C :   -0.149801
  10 C :   -0.166184
  11 C :   -0.136417
  12 C :   -0.150826
  13 C :   -0.141725
  14 H :    0.165412
  15 H :    0.169113
  16 H :    0.165828
  17 H :    0.158940
  18 H :    0.145350
  19 H :    0.145230
  20 H :    0.143584
  21 H :    0.165588
  22 H :    0.187257
  23 H :    0.145248
  24 H :    0.145416
  25 H :    0.144946
  26 H :    0.153427
Sum of atomic charges:   -0.0000000

LOEWDIN ATOMIC CHARGES
----------------------
   0 C :   -0.477998
   1 P :    0.622291
   2 C :   -0.284715
   3 C :   -0.139153
   4 C :   -0.143194
   5 C :   -0.144258
   6 C :   -0.144766
   7 C :   -0.150147
   8 C :   -0.277433
   9 C :   -0.133801
  10 C :   -0.142814
  11 C :   -0.141292
  12 C :   -0.144692
  13 C :   -0.147177
  14 H :    0.115799
  15 H :    0.124995
  16 H :    0.119843
  17 H :    0.152244
  18 H :    0.147951
  19 H :    0.146810
  20 H :    0.147246
  21 H :    0.148854
  22 H :    0.155841
  23 H :    0.147471
  24 H :    0.146910
  25 H :    0.147263
  26 H :    0.147921

  Mayer bond orders larger than 0.100000
B(  0-C ,  1-P ) :   0.9660 B(  0-C , 14-H ) :   0.9445 B(  0-C , 15-H ) :   0.9515
B(  0-C , 16-H ) :   0.9463 B(  1-P ,  2-C ) :   0.9701 B(  1-P ,  8-C ) :   0.9529
B(  2-C ,  3-C ) :   1.3701 B(  2-C ,  7-C ) :   1.3649 B(  3-C ,  4-C ) :   1.4758
B(  3-C , 17-H ) :   0.9385 B(  4-C ,  5-C ) :   1.4170 B(  4-C , 18-H ) :   0.9475
B(  5-C ,  6-C ) :   1.4568 B(  5-C , 19-H ) :   0.9465 B(  6-C ,  7-C ) :   1.4606
B(  6-C , 20-H ) :   0.9437 B(  7-C , 21-H ) :   0.9261 B(  8-C ,  9-C ) :   1.3395
B(  8-C , 13-C ) :   1.4096 B(  9-C , 10-C ) :   1.4772 B(  9-C , 22-H ) :   0.9238
B( 10-C , 11-C ) :   1.4263 B( 10-C , 23-H ) :   0.9431 B( 11-C , 12-C ) :   1.4457
B( 11-C , 24-H ) :   0.9466 B( 12-C , 13-C ) :   1.4534 B( 12-C , 25-H ) :   0.9477
B( 13-C , 26-H ) :   0.9271

Dispersion correction           -0.001247518
FINAL SINGLE POINT ENERGY      -844.514078047592

DIPOLE MOMENT
-------------

Method             : SCF
Type of density    : Electron Density
Multiplicity       :   1
Irrep              :   0
Energy             :  -844.5128305298517262 Eh
Relativity type    :
Basis              : AO
                                X                 Y                 Z
Electronic contribution:      0.015706760       0.148831335       4.580288621
Nuclear contribution   :     -0.046530449      -0.030092697      -5.066790341
                        -----------------------------------------
Total Dipole Moment    :     -0.030823689       0.118738639      -0.486501721
                        -----------------------------------------
Magnitude (a.u.)       :      0.501729896
Magnitude (Debye)      :      1.275296046

Rotational constants in cm-1:             0.037650             0.013200             0.011433
Rotational constants in MHz :          1128.733535           395.721823           342.757387

                             ****ORCA TERMINATED NORMALLY****
TOTAL RUN TIME: 0 days 0 hours 1 minutes 10 seconds 934 msec
