                         Program Version 6.0.0  -   RELEASE   -
|  1> ! RIJONX B3LYP def2-SVP D3BJ TIGHTSCF Opt
|  2> %pal
|  3> nprocs 6
|  4> end
|  5>
|  6> * xyz 0 1
|  7> C      4.943869   -0.721571    1.317512
|  8> N      4.410580    0.319845    0.440858
|  9> C      5.392785    0.992233   -0.407820
| 10> C      3.088677    0.212880   -0.008016
| 11> C      2.157121   -0.642555    0.602022
| 12> C      0.822963   -0.741861    0.169084
| 13> C      0.349649    0.026396   -0.895185
| 14> C      1.260687    0.893890   -1.507968
| 15> C      2.591800    0.986883   -1.068082
| 16> P     -1.354552   -0.024875   -1.530523
| 17> C     -2.083949   -1.487528   -0.723146
| 18> C     -1.874891   -2.742764   -1.322596
| 19> C     -2.402600   -3.909379   -0.762085
| 20> C     -3.151773   -3.841810    0.408361
| 21> C     -3.372142   -2.609432    1.016771
| 22> C     -2.843344   -1.442417    0.455456
| 23> C     -2.177187    1.383460   -0.715621
| 24> C     -1.616659    2.127037    0.333488
| 25> C     -2.309386    3.198015    0.907964
| 26> C     -3.574082    3.545546    0.442005
| 27> C     -4.147963    2.823463   -0.599533
| 28> C     -3.454944    1.753847   -1.173418
| 29> H      5.989206   -0.523010    1.579958
| 30> H      4.906180   -1.703132    0.832162
| 31> H      4.399391   -0.758131    2.267121
| 32> H      5.489338    0.487276   -1.375344
| 33> H      5.128381    2.043451   -0.564786
| 34> H      6.383269    1.000229    0.061124
| 35> H      2.438406   -1.264471    1.446326
| 36> H      0.171602   -1.430409    0.700984
| 37> H      0.948067    1.524804   -2.338410
| 38> H      3.226699    1.696080   -1.589810
| 39> H     -1.291019   -2.824967   -2.237938
| 40> H     -2.226982   -4.868366   -1.242307
| 41> H     -3.563868   -4.747245    0.845577
| 42> H     -3.956924   -2.550998    1.931242
| 43> H     -3.034180   -0.501890    0.965982
| 44> H     -0.633577    1.888098    0.731387
| 45> H     -1.855468    3.759584    1.720592
| 46> H     -4.110077    4.378306    0.889197
| 47> H     -5.134701    3.090033   -0.968816
| 48> H     -3.928402    1.205453   -1.986228
| 49> **                         ****END OF INPUT****
 Total Charge           Charge          ....    0
 Multiplicity           Mult            ....    1
 Number of Electrons    NEL             ....  162
Dispersion correction           -0.100421492
FINAL SINGLE POINT ENERGY     -1169.084850675384
Dispersion correction             ... done (  0.1 sec)
Dispersion correction           -0.101237811
FINAL SINGLE POINT ENERGY     -1169.089038422767
Dispersion correction             ... done (  0.1 sec)
Dispersion correction           -0.101410208
FINAL SINGLE POINT ENERGY     -1169.090076326689
Dispersion correction             ... done (  0.1 sec)
FINAL SINGLE POINT ENERGY     -1169.090324547625
FINAL SINGLE POINT ENERGY     -1169.090407400666
FINAL SINGLE POINT ENERGY     -1169.090460935486
FINAL SINGLE POINT ENERGY     -1169.090521952832
FINAL SINGLE POINT ENERGY     -1169.090583110921
FINAL SINGLE POINT ENERGY     -1169.090625328790
FINAL SINGLE POINT ENERGY     -1169.090651543867
FINAL SINGLE POINT ENERGY     -1169.090662784794
FINAL SINGLE POINT ENERGY     -1169.090667091153
Dispersion correction             ... done (  0.1 sec)
Dispersion correction           -0.101261666
FINAL SINGLE POINT ENERGY     -1169.090668773870
Dispersion correction             ... done (  0.1 sec)
Dispersion correction           -0.101262810
FINAL SINGLE POINT ENERGY     -1169.090669300840
Dispersion correction             ... done (  0.1 sec)
                    ***********************HURRAY********************

CARTESIAN COORDINATES (ANGSTROEM)
---------------------------------
  C      4.744468   -0.513033    1.525283
  N      4.354125    0.189074    0.322380
  C      5.331357    0.961342   -0.413027
  C      3.048509    0.126166   -0.120732
  C      2.066219   -0.618989    0.579423
  C      0.750167   -0.674310    0.129612
  C      0.340619   -0.002700   -1.033602
  C      1.316299    0.722774   -1.736977
  C      2.634572    0.799388   -1.297585
  P     -1.380917    0.008455   -1.680904
  C     -2.087644   -1.471000   -0.821702
  C     -1.853517   -2.725691   -1.411831
  C     -2.337150   -3.894648   -0.822004
  C     -3.080106   -3.826730    0.361730
  C     -3.329266   -2.584185    0.950105
  C     -2.834599   -1.413751    0.365175
  C     -2.152946    1.383468   -0.712062
  C     -1.493797    2.088372    0.306496
  C     -2.139865    3.129235    0.981669
  C     -3.452694    3.476285    0.652426
  C     -4.117382    2.782375   -0.364814
  C     -3.467992    1.752459   -1.047433
  H      5.812943   -0.347301    1.713817
  H      4.581618   -1.603930    1.442816
  H      4.186275   -0.161913    2.413454
  H      5.464483    0.591031   -1.446857
  H      5.054718    2.030389   -0.477937
  H      6.303035    0.897066    0.093300
  H      2.329501   -1.162372    1.486065
  H      0.024425   -1.256429    0.701941
  H      1.035709    1.247192   -2.655511
  H      3.347629    1.379853   -1.881483
  H     -1.281964   -2.783095   -2.343007
  H     -2.141166   -4.862186   -1.291862
  H     -3.466587   -4.740255    0.821036
  H     -3.909777   -2.522736    1.874674
  H     -3.028736   -0.449323    0.838372
  H     -0.470436    1.818882    0.574733
  H     -1.613212    3.669732    1.772973
  H     -3.956324    4.288705    1.182736
  H     -5.142700    3.051092   -0.632827
  H     -3.987893    1.221242   -1.850513

 Multiplicity           Mult            ....    1
 Number of Electrons    NEL             ....  162
 Basis Dimension        Dim             ....  412

ORBITAL ENERGIES
----------------

  NO   OCC          E(Eh)            E(eV)
   0   2.0000     -77.040947     -2096.3907
   1   2.0000     -14.346443      -390.3865
   2   2.0000     -10.224393      -278.2199
   3   2.0000     -10.223451      -278.1943
   4   2.0000     -10.223377      -278.1922
   5   2.0000     -10.184727      -277.1405
   6   2.0000     -10.184669      -277.1389
   7   2.0000     -10.184414      -277.1320
   8   2.0000     -10.184384      -277.1312
   9   2.0000     -10.184214      -277.1266
  10   2.0000     -10.184058      -277.1223
  11   2.0000     -10.183925      -277.1187
  12   2.0000     -10.183896      -277.1179
  13   2.0000     -10.183680      -277.1120
  14   2.0000     -10.183071      -277.0954
  15   2.0000     -10.182867      -277.0899
  16   2.0000     -10.182296      -277.0743
  17   2.0000     -10.181596      -277.0553
  18   2.0000     -10.181228      -277.0453
  19   2.0000     -10.176478      -276.9161
  20   2.0000     -10.176304      -276.9113
  21   2.0000     -10.172008      -276.7944
  22   2.0000      -6.536448      -177.8658
  23   2.0000      -4.701929      -127.9460
  24   2.0000      -4.701861      -127.9441
  25   2.0000      -4.699014      -127.8667
  26   2.0000      -0.943234       -25.6667
  27   2.0000      -0.843319       -22.9479
  28   2.0000      -0.836728       -22.7685
  29   2.0000      -0.829811       -22.5803
  30   2.0000      -0.756008       -20.5720
  31   2.0000      -0.738540       -20.0967
  32   2.0000      -0.732708       -19.9380
  33   2.0000      -0.730449       -19.8765
  34   2.0000      -0.728246       -19.8166
  35   2.0000      -0.725442       -19.7403
  36   2.0000      -0.713470       -19.4145
  37   2.0000      -0.661925       -18.0119
  38   2.0000      -0.621602       -16.9146
  39   2.0000      -0.593279       -16.1439
  40   2.0000      -0.592314       -16.1177
  41   2.0000      -0.590943       -16.0804
  42   2.0000      -0.581525       -15.8241
  43   2.0000      -0.568526       -15.4704
  44   2.0000      -0.545259       -14.8373
  45   2.0000      -0.524076       -14.2608
  46   2.0000      -0.507735       -13.8162
  47   2.0000      -0.493041       -13.4163
  48   2.0000      -0.483527       -13.1574
  49   2.0000      -0.466662       -12.6985
  50   2.0000      -0.451864       -12.2958
  51   2.0000      -0.446946       -12.1620
  52   2.0000      -0.441555       -12.0153
  53   2.0000      -0.439971       -11.9722
  54   2.0000      -0.439168       -11.9504
  55   2.0000      -0.427076       -11.6213
  56   2.0000      -0.423545       -11.5252
  57   2.0000      -0.415802       -11.3146
  58   2.0000      -0.413887       -11.2624
  59   2.0000      -0.413338       -11.2475
  60   2.0000      -0.408835       -11.1250
  61   2.0000      -0.399242       -10.8639
  62   2.0000      -0.396960       -10.8018
  63   2.0000      -0.382858       -10.4181
  64   2.0000      -0.371251       -10.1022
  65   2.0000      -0.362127        -9.8540
  66   2.0000      -0.360812        -9.8182
  67   2.0000      -0.358759        -9.7623
  68   2.0000      -0.338677        -9.2159
  69   2.0000      -0.337906        -9.1949
  70   2.0000      -0.332450        -9.0464
  71   2.0000      -0.318215        -8.6591
  72   2.0000      -0.316066        -8.6006
  73   2.0000      -0.287101        -7.8124
  74   2.0000      -0.265317        -7.2197
  75   2.0000      -0.252845        -6.8803
  76   2.0000      -0.252206        -6.8629
  77   2.0000      -0.246864        -6.7175
  78   2.0000      -0.244542        -6.6543
  79   2.0000      -0.214679        -5.8417
  80   2.0000      -0.188589        -5.1318
  81   0.0000      -0.016383        -0.4458
  82   0.0000      -0.013593        -0.3699
  83   0.0000      -0.009171        -0.2496
  84   0.0000       0.002579         0.0702
  85   0.0000       0.004407         0.1199

MULLIKEN ATOMIC CHARGES
-----------------------
   0 C :    0.139652
   1 N :   -0.315370
   2 C :    0.138468
   3 C :    0.218021
   4 C :   -0.064250
   5 C :    0.022196
   6 C :   -0.164159
   7 C :    0.019996
   8 C :   -0.069564
   9 P :    0.355660
  10 C :   -0.158049
  11 C :    0.026955
  12 C :    0.019757
  13 C :    0.021430
  14 C :    0.023315
  15 C :    0.014250
  16 C :   -0.161841
  17 C :    0.013262
  18 C :    0.025903
  19 C :    0.021460
  20 C :    0.019536
  21 C :    0.020394
  22 H :    0.015156
  23 H :    0.021108
  24 H :    0.019845
  25 H :    0.020965
  26 H :    0.020416
  27 H :    0.015140
  28 H :   -0.044717
  29 H :   -0.011606
  30 H :   -0.023890
  31 H :   -0.042708
  32 H :   -0.018543
  33 H :   -0.018600
  34 H :   -0.018919
  35 H :   -0.020844
  36 H :   -0.001215
  37 H :   -0.001270
  38 H :   -0.021798
  39 H :   -0.018968
  40 H :   -0.018375
  41 H :   -0.018202
Sum of atomic charges:   -0.0000000

LOEWDIN ATOMIC CHARGES
----------------------
   0 C :    0.031634
   1 N :   -0.060942
   2 C :    0.031638
   3 C :    0.035532
   4 C :   -0.073710
   5 C :   -0.017035
   6 C :   -0.212824
   7 C :   -0.018354
   8 C :   -0.074170
   9 P :    0.509325
  10 C :   -0.169329
  11 C :   -0.028434
  12 C :   -0.026915
  13 C :   -0.026745
  14 C :   -0.027190
  15 C :   -0.033584
  16 C :   -0.172948
  17 C :   -0.031632
  18 C :   -0.026961
  19 C :   -0.026875
  20 C :   -0.027511
  21 C :   -0.030517
  22 H :    0.024660
  23 H :    0.018084
  24 H :    0.017495
  25 H :    0.017856
  26 H :    0.017741
  27 H :    0.024694
  28 H :    0.022276
  29 H :    0.028426
  30 H :    0.023557
  31 H :    0.022427
  32 H :    0.024006
  33 H :    0.026191
  34 H :    0.025432
  35 H :    0.025792
  36 H :    0.028646
  37 H :    0.029293
  38 H :    0.025426
  39 H :    0.025389
  40 H :    0.026250
  41 H :    0.023906

  Mayer bond orders larger than 0.100000
B(  0-C ,  1-N ) :   1.0220 B(  0-C , 22-H ) :   0.9668 B(  0-C , 23-H ) :   0.9597
B(  0-C , 24-H ) :   0.9599 B(  1-N ,  2-C ) :   1.0217 B(  1-N ,  3-C ) :   1.1524
B(  2-C , 25-H ) :   0.9599 B(  2-C , 26-H ) :   0.9598 B(  2-C , 27-H ) :   0.9669
B(  3-C ,  4-C ) :   1.2896 B(  3-C ,  8-C ) :   1.2963 B(  4-C ,  5-C ) :   1.3989
B(  4-C , 28-H ) :   0.9858 B(  5-C ,  6-C ) :   1.3466 B(  5-C , 29-H ) :   0.9764
B(  6-C ,  7-C ) :   1.3523 B(  6-C ,  9-P ) :   0.9471 B(  7-C ,  8-C ) :   1.4060
B(  7-C , 30-H ) :   0.9783 B(  8-C , 31-H ) :   0.9864 B(  9-P , 10-C ) :   0.9281
B(  9-P , 16-C ) :   0.9146 B( 10-C , 11-C ) :   1.3705 B( 10-C , 15-C ) :   1.3901
B( 11-C , 12-C ) :   1.4079 B( 11-C , 32-H ) :   0.9808 B( 12-C , 13-C ) :   1.3731
B( 12-C , 33-H ) :   0.9844 B( 13-C , 14-C ) :   1.3841 B( 13-C , 34-H ) :   0.9842
B( 14-C , 15-C ) :   1.3803 B( 14-C , 35-H ) :   0.9835 B( 15-C , 36-H ) :   0.9782
B( 16-C , 17-C ) :   1.3953 B( 16-C , 21-C ) :   1.3662 B( 17-C , 18-C ) :   1.3792
B( 17-C , 37-H ) :   0.9792 B( 18-C , 19-C ) :   1.3839 B( 18-C , 38-H ) :   0.9831
B( 19-C , 20-C ) :   1.3730 B( 19-C , 39-H ) :   0.9840 B( 20-C , 21-C ) :   1.4087
B( 20-C , 40-H ) :   0.9845 B( 21-C , 41-H ) :   0.9814

Dispersion correction           -0.101263071
FINAL SINGLE POINT ENERGY     -1169.090669402123

DIPOLE MOMENT
-------------

Method             : SCF
Type of density    : Electron Density
Multiplicity       :   1
Irrep              :   0
Energy             : -1168.9894063309288867 Eh
Relativity type    :
Basis              : AO
                                X                 Y                 Z
Electronic contribution:    -15.537468196      -0.426000206      -8.316022650
Nuclear contribution   :     16.746478002       0.445623340       9.103906979
                        -----------------------------------------
Total Dipole Moment    :      1.209009806       0.019623134       0.787884329
                        -----------------------------------------
Magnitude (a.u.)       :      1.443208749
Magnitude (Debye)      :      3.668345112

Rotational constants in cm-1:             0.011206             0.005821             0.004437
Rotational constants in MHz :           335.936987           174.500684           133.023780

                             ****ORCA TERMINATED NORMALLY****
TOTAL RUN TIME: 0 days 0 hours 15 minutes 13 seconds 940 msec
