                         Program Version 6.0.0  -   RELEASE   -
|  1> ! RIJCOSX M062X def2-TZVP D3ZERO NormalSCF
|  2> %pal
|  3> nprocs 6
|  4> end
|  5>
|  6> * xyz 0 1
|  7>   C           3.17896851324540     -1.18395060802024     -0.69076934015513
|  8>   C           2.98886205907192     -1.06887254153711      0.69533783975342
|  9>   C           1.76175392958731     -0.60481949173433      1.19940281222683
| 10>   C           0.71233530917175     -0.25129874126695      0.32488128412032
| 11>   C           0.91580984724251     -0.37144438572477     -1.06796678558033
| 12>   C           2.14016351793157     -0.83439399379180     -1.57240462425017
| 13>   P          -0.87349597172309      0.35177095296410      1.07925231470252
| 14>   C          -2.10210431421787     -0.73790720978657      0.16528732949627
| 15>   C          -1.93938523116783     -2.21326310883763      0.58195530868174
| 16>   C          -2.90443357273403     -3.09383994141525     -0.07983001543068
| 17>   N          -3.68644722484317     -3.77649536221721     -0.62257640009253
| 18>   C          -1.12662411166922      1.92866664647777      0.08810017424161
| 19>   C          -0.02902955842993      2.96130866996669      0.41317672257777
| 20>   C          -0.21699982712409      4.22570918049619     -0.30139473075983
| 21>   N          -0.38928698678191      5.22674286969954     -0.88482896721566
| 22>   H           4.13896065479564     -1.54721617438534     -1.08813957058603
| 23>   H           3.79885088611671     -1.34148213431314      1.38904113345554
| 24>   H           1.60920972334346     -0.51331747011119      2.28678180167882
| 25>   H           0.11275689696656     -0.10222686799100     -1.77283342082954
| 26>   H           2.28601848412749     -0.92347640482848     -2.65985563122093
| 27>   H          -1.98896852576451     -0.63683088548845     -0.93485915107234
| 28>   H          -3.11972971024524     -0.37715722881686      0.42347327718643
| 29>   H          -0.91462862296479     -2.56848971180434      0.33729082098911
| 30>   H          -2.05321976970214     -2.32211196484385      1.68235568166983
| 31>   H          -1.14434336350964      1.72013806827748     -1.00252827265095
| 32>   H          -2.12442811967661      2.33221527145270      0.35981533119434
| 33>   H           0.97005523627406      2.55270413525643      0.14699618959443
| 34>   H          -0.00061814732030      3.16933743232364      1.50484088827514
| 35> **                         ****END OF INPUT****

CARTESIAN COORDINATES (ANGSTROEM)
---------------------------------
  C      3.178969   -1.183951   -0.690769
  C      2.988862   -1.068873    0.695338
  C      1.761754   -0.604819    1.199403
  C      0.712335   -0.251299    0.324881
  C      0.915810   -0.371444   -1.067967
  C      2.140164   -0.834394   -1.572405
  P     -0.873496    0.351771    1.079252
  C     -2.102104   -0.737907    0.165287
  C     -1.939385   -2.213263    0.581955
  C     -2.904434   -3.093840   -0.079830
  N     -3.686447   -3.776495   -0.622576
  C     -1.126624    1.928667    0.088100
  C     -0.029030    2.961309    0.413177
  C     -0.217000    4.225709   -0.301395
  N     -0.389287    5.226743   -0.884829
  H      4.138961   -1.547216   -1.088140
  H      3.798851   -1.341482    1.389041
  H      1.609210   -0.513317    2.286782
  H      0.112757   -0.102227   -1.772833
  H      2.286018   -0.923476   -2.659856
  H     -1.988969   -0.636831   -0.934859
  H     -3.119730   -0.377157    0.423473
  H     -0.914629   -2.568490    0.337291
  H     -2.053220   -2.322112    1.682356
  H     -1.144343    1.720138   -1.002528
  H     -2.124428    2.332215    0.359815
  H      0.970055    2.552704    0.146996
  H     -0.000618    3.169337    1.504841

 Total Charge           Charge          ....    0
 Multiplicity           Mult            ....    1
 Number of Electrons    NEL             ....  114
 Basis Dimension        Dim             ....  549

ORBITAL ENERGIES
----------------

  NO   OCC          E(Eh)            E(eV)
   0   2.0000     -78.055506     -2123.9983
   1   2.0000     -14.760480      -401.6531
   2   2.0000     -14.760458      -401.6525
   3   2.0000     -10.605509      -288.5906
   4   2.0000     -10.605469      -288.5895
   5   2.0000     -10.586999      -288.0869
   6   2.0000     -10.586989      -288.0866
   7   2.0000     -10.581998      -287.9508
   8   2.0000     -10.581976      -287.9502
   9   2.0000     -10.578738      -287.8621
  10   2.0000     -10.577987      -287.8417
  11   2.0000     -10.576363      -287.7975
  12   2.0000     -10.575295      -287.7684
  13   2.0000     -10.574309      -287.7416
  14   2.0000     -10.573342      -287.7153
  15   2.0000      -6.871554      -186.9845
  16   2.0000      -4.985972      -135.6752
  17   2.0000      -4.985739      -135.6689
  18   2.0000      -4.985548      -135.6637
  19   2.0000      -1.013901       -27.5897
  20   2.0000      -1.013696       -27.5841
  21   2.0000      -0.981220       -26.7004
  22   2.0000      -0.926604       -25.2142
  23   2.0000      -0.911064       -24.7913
  24   2.0000      -0.868237       -23.6259
  25   2.0000      -0.865392       -23.5485
  26   2.0000      -0.804862       -21.9014
  27   2.0000      -0.753747       -20.5105
  28   2.0000      -0.716461       -19.4959
  29   2.0000      -0.708257       -19.2727
  30   2.0000      -0.650780       -17.7086
  31   2.0000      -0.608123       -16.5479
  32   2.0000      -0.605411       -16.4741
  33   2.0000      -0.586318       -15.9545
  34   2.0000      -0.572317       -15.5735
  35   2.0000      -0.566556       -15.4168
  36   2.0000      -0.543615       -14.7925
  37   2.0000      -0.539534       -14.6815
  38   2.0000      -0.513764       -13.9802
  39   2.0000      -0.509735       -13.8706
  40   2.0000      -0.489061       -13.3080
  41   2.0000      -0.488443       -13.2912
  42   2.0000      -0.469756       -12.7827
  43   2.0000      -0.462819       -12.5939
  44   2.0000      -0.461776       -12.5656
  45   2.0000      -0.452332       -12.3086
  46   2.0000      -0.446353       -12.1459
  47   2.0000      -0.428362       -11.6563
  48   2.0000      -0.421513       -11.4699
  49   2.0000      -0.400237       -10.8910
  50   2.0000      -0.395740       -10.7686
  51   2.0000      -0.394800       -10.7430
  52   2.0000      -0.394067       -10.7231
  53   2.0000      -0.386589       -10.5196
  54   2.0000      -0.334533        -9.1031
  55   2.0000      -0.331216        -9.0129
  56   2.0000      -0.316916        -8.6237
  57   0.0000      -0.027123        -0.7380
  58   0.0000      -0.009957        -0.2710
  59   0.0000       0.027121         0.7380
  60   0.0000       0.032064         0.8725
  61   0.0000       0.044772         1.2183

MULLIKEN ATOMIC CHARGES
-----------------------
   0 C :   -0.124287
   1 C :   -0.152375
   2 C :   -0.085208
   3 C :   -0.164828
   4 C :   -0.142995
   5 C :   -0.167761
   6 P :    0.194804
   7 C :   -0.422405
   8 C :   -0.252640
   9 C :   -0.150438
  10 N :   -0.010450
  11 C :   -0.421342
  12 C :   -0.252708
  13 C :   -0.150220
  14 N :   -0.010468
  15 H :    0.155143
  16 H :    0.154162
  17 H :    0.163118
  18 H :    0.158475
  19 H :    0.155910
  20 H :    0.191266
  21 H :    0.184675
  22 H :    0.199292
  23 H :    0.188364
  24 H :    0.190884
  25 H :    0.184585
  26 H :    0.199076
  27 H :    0.188374
Sum of atomic charges:   -0.0000000

LOEWDIN ATOMIC CHARGES
----------------------
   0 C :   -0.129082
   1 C :   -0.135591
   2 C :   -0.146596
   3 C :   -0.298119
   4 C :   -0.141838
   5 C :   -0.134886
   6 P :    0.610506
   7 C :   -0.388877
   8 C :   -0.272738
   9 C :   -0.196412
  10 N :    0.046768
  11 C :   -0.388802
  12 C :   -0.272629
  13 C :   -0.196378
  14 N :    0.046778
  15 H :    0.151025
  16 H :    0.150828
  17 H :    0.150389
  18 H :    0.148622
  19 H :    0.151517
  20 H :    0.136798
  21 H :    0.145212
  22 H :    0.171846
  23 H :    0.168837
  24 H :    0.136849
  25 H :    0.145226
  26 H :    0.171910
  27 H :    0.168840

  Mayer bond orders larger than 0.100000
B(  0-C ,  1-C ) :   1.4471 B(  0-C ,  5-C ) :   1.4238 B(  0-C , 15-H ) :   0.9440
B(  1-C ,  2-C ) :   1.4505 B(  1-C , 16-H ) :   0.9457 B(  2-C ,  3-C ) :   1.3878
B(  2-C , 17-H ) :   0.9277 B(  3-C ,  4-C ) :   1.2718 B(  3-C ,  6-P ) :   0.9428
B(  4-C ,  5-C ) :   1.5016 B(  4-C , 18-H ) :   0.9354 B(  5-C , 19-H ) :   0.9401
B(  6-P ,  7-C ) :   0.9593 B(  6-P , 11-C ) :   0.9579 B(  7-C ,  8-C ) :   0.9043
B(  7-C , 20-H ) :   0.9597 B(  7-C , 21-H ) :   0.9435 B(  8-C ,  9-C ) :   0.9696
B(  8-C , 22-H ) :   0.9493 B(  8-C , 23-H ) :   0.9394 B(  9-C , 10-N ) :   3.0513
B( 11-C , 12-C ) :   0.9051 B( 11-C , 24-H ) :   0.9599 B( 11-C , 25-H ) :   0.9437
B( 12-C , 13-C ) :   0.9709 B( 12-C , 26-H ) :   0.9492 B( 12-C , 27-H ) :   0.9383
B( 13-C , 14-N ) :   3.0517

Dispersion correction           -0.001441509
FINAL SINGLE POINT ENERGY      -915.892560392110

DIPOLE MOMENT
-------------

Method             : SCF
Type of density    : Electron Density
Multiplicity       :   1
Irrep              :   0
Energy             :  -915.8911188827768228 Eh
Relativity type    :
Basis              : AO
                                X                 Y                 Z
Electronic contribution:     -2.887075521       1.110577627       1.743375549
Nuclear contribution   :      4.427095135      -1.651447010      -0.868123719
                        -----------------------------------------
Total Dipole Moment    :      1.540019615      -0.540869383       0.875251831
                        -----------------------------------------
Magnitude (a.u.)       :      1.852097695
Magnitude (Debye)      :      4.707658217

Rotational constants in cm-1:             0.018258             0.011722             0.008236
Rotational constants in MHz :           547.350128           351.412463           246.914251

                             ****ORCA TERMINATED NORMALLY****
TOTAL RUN TIME: 0 days 0 hours 1 minutes 7 seconds 652 msec
