                         Program Version 6.0.0  -   RELEASE   -
|  1> ! RIJCOSX M062X def2-TZVP D3ZERO NormalSCF
|  2> %pal
|  3> nprocs 6
|  4> end
|  5>
|  6> * xyz 0 1
|  7>   C          -1.26764963887077      3.12208517399922      0.09990801003586
|  8>   C           0.04252185580768      2.33766410821606     -0.01841541691389
|  9>   P           0.10164452387837      0.89634729001087      1.18818088030548
| 10>   C          -1.23957064934826     -0.15463009858498      0.44908734257690
| 11>   C          -2.47041772827405     -0.23715059241164      1.13334038738294
| 12>   C          -3.53942783095509     -0.97501817091468      0.59628077112400
| 13>   C          -3.38345777824012     -1.64721157338753     -0.62666694887850
| 14>   C          -2.15709584919194     -1.57722714203453     -1.31254951069079
| 15>   C          -1.09248109127983     -0.83538468224051     -0.77951710704816
| 16>   C           1.59092043361513     -0.02886944504827      0.60205812045156
| 17>   C           1.76539534776776     -1.35071931011255      1.07661444543948
| 18>   C           2.89325222245648     -2.10048415619847      0.71762277728193
| 19>   C           3.88183401250878     -1.53810324299456     -0.11073429766875
| 20>   C           3.72692848245078     -0.22375195023174     -0.57705751383318
| 21>   C           2.58956301667033      0.52549073742287     -0.22651832203558
| 22>   H          -1.42082424271489      3.50400175418433      1.13046170789659
| 23>   H          -1.27235053240778      3.99231299758110     -0.58798713901701
| 24>   H          -2.14094740046379      2.48749034670925     -0.15480004523551
| 25>   H           0.90761614583258      2.99173217048179      0.22417981630910
| 26>   H           0.18962152962874      1.96230949181552     -1.05441707744684
| 27>   H          -2.58575739846952      0.28193567248837      2.09849423632225
| 28>   H          -4.49547114293012     -1.03079658425711      1.13963105729083
| 29>   H          -4.21713422673555     -2.23157725626477     -1.04575136906228
| 30>   H          -2.03083573567029     -2.10611506854060     -2.27020150418164
| 31>   H          -0.13160526139397     -0.78727746921040     -1.31562635223916
| 32>   H           0.99723496992205     -1.79812315606587      1.72818061490450
| 33>   H           3.00524733498658     -3.13076506198818      1.08971936334751
| 34>   H           4.77084200165328     -2.12439699571151     -0.38922800823057
| 35>   H           4.49493254020251      0.22563086062509     -1.22584238030305
| 36>   H           2.48747308956490      1.55059935266345     -0.61143253788400
| 37> **                         ****END OF INPUT****

CARTESIAN COORDINATES (ANGSTROEM)
---------------------------------
  C     -1.267650    3.122085    0.099908
  C      0.042522    2.337664   -0.018415
  P      0.101645    0.896347    1.188181
  C     -1.239571   -0.154630    0.449087
  C     -2.470418   -0.237151    1.133340
  C     -3.539428   -0.975018    0.596281
  C     -3.383458   -1.647212   -0.626667
  C     -2.157096   -1.577227   -1.312550
  C     -1.092481   -0.835385   -0.779517
  C      1.590920   -0.028869    0.602058
  C      1.765395   -1.350719    1.076614
  C      2.893252   -2.100484    0.717623
  C      3.881834   -1.538103   -0.110734
  C      3.726928   -0.223752   -0.577058
  C      2.589563    0.525491   -0.226518
  H     -1.420824    3.504002    1.130462
  H     -1.272351    3.992313   -0.587987
  H     -2.140947    2.487490   -0.154800
  H      0.907616    2.991732    0.224180
  H      0.189622    1.962309   -1.054417
  H     -2.585757    0.281936    2.098494
  H     -4.495471   -1.030797    1.139631
  H     -4.217134   -2.231577   -1.045751
  H     -2.030836   -2.106115   -2.270202
  H     -0.131605   -0.787277   -1.315626
  H      0.997235   -1.798123    1.728181
  H      3.005247   -3.130765    1.089719
  H      4.770842   -2.124397   -0.389228
  H      4.494933    0.225631   -1.225842
  H      2.487473    1.550599   -0.611433

 Total Charge           Charge          ....    0
 Multiplicity           Mult            ....    1
 Number of Electrons    NEL             ....  114
 Basis Dimension        Dim             ....  561

ORBITAL ENERGIES
----------------

  NO   OCC          E(Eh)            E(eV)
   0   2.0000     -78.026133     -2123.1990
   1   2.0000     -10.554290      -287.1968
   2   2.0000     -10.552609      -287.1511
   3   2.0000     -10.551969      -287.1337
   4   2.0000     -10.551431      -287.1190
   5   2.0000     -10.551407      -287.1184
   6   2.0000     -10.550736      -287.1001
   7   2.0000     -10.550217      -287.0860
   8   2.0000     -10.550172      -287.0848
   9   2.0000     -10.549985      -287.0797
  10   2.0000     -10.549955      -287.0789
  11   2.0000     -10.549406      -287.0639
  12   2.0000     -10.548913      -287.0505
  13   2.0000     -10.545345      -286.9534
  14   2.0000     -10.534037      -286.6457
  15   2.0000      -6.842200      -186.1857
  16   2.0000      -4.956745      -134.8799
  17   2.0000      -4.956504      -134.8733
  18   2.0000      -4.956227      -134.8658
  19   2.0000      -0.958417       -26.0799
  20   2.0000      -0.952558       -25.9204
  21   2.0000      -0.873454       -23.7679
  22   2.0000      -0.843570       -22.9547
  23   2.0000      -0.840691       -22.8764
  24   2.0000      -0.838597       -22.8194
  25   2.0000      -0.833874       -22.6909
  26   2.0000      -0.735026       -20.0011
  27   2.0000      -0.694955       -18.9107
  28   2.0000      -0.686594       -18.6832
  29   2.0000      -0.677213       -18.4279
  30   2.0000      -0.675341       -18.3770
  31   2.0000      -0.624464       -16.9925
  32   2.0000      -0.588146       -16.0043
  33   2.0000      -0.571212       -15.5435
  34   2.0000      -0.525175       -14.2907
  35   2.0000      -0.521770       -14.1981
  36   2.0000      -0.516678       -14.0595
  37   2.0000      -0.512333       -13.9413
  38   2.0000      -0.511498       -13.9186
  39   2.0000      -0.492628       -13.4051
  40   2.0000      -0.486073       -13.2267
  41   2.0000      -0.485662       -13.2155
  42   2.0000      -0.465293       -12.6613
  43   2.0000      -0.442398       -12.0383
  44   2.0000      -0.438161       -11.9230
  45   2.0000      -0.431377       -11.7384
  46   2.0000      -0.428117       -11.6497
  47   2.0000      -0.412834       -11.2338
  48   2.0000      -0.404022       -10.9940
  49   2.0000      -0.403009       -10.9664
  50   2.0000      -0.372602       -10.1390
  51   2.0000      -0.365988        -9.9590
  52   2.0000      -0.325406        -8.8547
  53   2.0000      -0.312577        -8.5057
  54   2.0000      -0.309976        -8.4349
  55   2.0000      -0.306319        -8.3354
  56   2.0000      -0.268003        -7.2927
  57   0.0000       0.000077         0.0021
  58   0.0000       0.007576         0.2061
  59   0.0000       0.009212         0.2507
  60   0.0000       0.022413         0.6099
  61   0.0000       0.066884         1.8200

MULLIKEN ATOMIC CHARGES
-----------------------
   0 C :   -0.455616
   1 C :   -0.368890
   2 P :    0.168464
   3 C :   -0.133173
   4 C :   -0.129616
   5 C :   -0.145270
   6 C :   -0.133670
   7 C :   -0.171057
   8 C :   -0.138090
   9 C :   -0.041401
  10 C :   -0.161205
  11 C :   -0.148257
  12 C :   -0.142034
  13 C :   -0.161999
  14 C :   -0.167398
  15 H :    0.151903
  16 H :    0.146414
  17 H :    0.166253
  18 H :    0.153670
  19 H :    0.167683
  20 H :    0.158214
  21 H :    0.145435
  22 H :    0.145842
  23 H :    0.145657
  24 H :    0.186456
  25 H :    0.162415
  26 H :    0.145015
  27 H :    0.144709
  28 H :    0.143188
  29 H :    0.166356
Sum of atomic charges:    0.0000000

LOEWDIN ATOMIC CHARGES
----------------------
   0 C :   -0.345907
   1 C :   -0.435195
   2 P :    0.649666
   3 C :   -0.279549
   4 C :   -0.149188
   5 C :   -0.144820
   6 C :   -0.140601
   7 C :   -0.142507
   8 C :   -0.133057
   9 C :   -0.282444
  10 C :   -0.138860
  11 C :   -0.143566
  12 C :   -0.145015
  13 C :   -0.145204
  14 C :   -0.150682
  15 H :    0.124239
  16 H :    0.123237
  17 H :    0.127485
  18 H :    0.132882
  19 H :    0.130955
  20 H :    0.148698
  21 H :    0.147354
  22 H :    0.147026
  23 H :    0.147575
  24 H :    0.155348
  25 H :    0.152575
  26 H :    0.147801
  27 H :    0.146615
  28 H :    0.147103
  29 H :    0.148036

  Mayer bond orders larger than 0.100000
B(  0-C ,  1-C ) :   0.9331 B(  0-C , 15-H ) :   0.9743 B(  0-C , 16-H ) :   0.9723
B(  0-C , 17-H ) :   0.9705 B(  1-C ,  2-P ) :   0.9553 B(  1-C , 18-H ) :   0.9394
B(  1-C , 19-H ) :   0.9457 B(  2-P ,  3-C ) :   0.9513 B(  2-P ,  9-C ) :   0.9840
B(  3-C ,  4-C ) :   1.3875 B(  3-C ,  8-C ) :   1.3273 B(  4-C ,  5-C ) :   1.4479
B(  4-C , 20-H ) :   0.9306 B(  5-C ,  6-C ) :   1.4483 B(  5-C , 21-H ) :   0.9479
B(  6-C ,  7-C ) :   1.4231 B(  6-C , 22-H ) :   0.9468 B(  7-C ,  8-C ) :   1.4850
B(  7-C , 23-H ) :   0.9429 B(  8-C , 24-H ) :   0.9256 B(  9-C , 10-C ) :   1.3640
B(  9-C , 14-C ) :   1.3649 B( 10-C , 11-C ) :   1.4792 B( 10-C , 25-H ) :   0.9384
B( 11-C , 12-C ) :   1.4175 B( 11-C , 26-H ) :   0.9474 B( 12-C , 13-C ) :   1.4573
B( 12-C , 27-H ) :   0.9468 B( 13-C , 14-C ) :   1.4645 B( 13-C , 28-H ) :   0.9436
B( 14-C , 29-H ) :   0.9227

Dispersion correction           -0.001543487
FINAL SINGLE POINT ENERGY      -883.820234294549

DIPOLE MOMENT
-------------

Method             : SCF
Type of density    : Electron Density
Multiplicity       :   1
Irrep              :   0
Energy             :  -883.8186908076116879 Eh
Relativity type    :
Basis              : AO
                                X                 Y                 Z
Electronic contribution:      2.470125817      -4.353543299       4.653928233
Nuclear contribution   :     -2.538162857       4.269527886      -5.172163710
                        -----------------------------------------
Total Dipole Moment    :     -0.068037040      -0.084015412      -0.518235476
                        -----------------------------------------
Magnitude (a.u.)       :      0.529391762
Magnitude (Debye)      :      1.345606921

Rotational constants in cm-1:             0.027611             0.012762             0.010137
Rotational constants in MHz :           827.755000           382.609626           303.891238

                             ****ORCA TERMINATED NORMALLY****
TOTAL RUN TIME: 0 days 0 hours 1 minutes 18 seconds 129 msec
