                         Program Version 6.0.0  -   RELEASE   -
|  1> ! RIJCOSX M062X def2-TZVP D3ZERO NormalSCF
|  2> %pal
|  3> nprocs 6
|  4> end
|  5>
|  6> * xyz 0 1
|  7>   C          -2.90334838274130     -2.61749284605073      0.12301847757375
|  8>   C          -1.78922759446231     -2.56371393830499     -0.62847759277853
|  9>   C          -0.43471341937110     -2.16285066232755     -0.12672367979023
| 10>   P           0.12898235213268     -0.59873781815448     -0.95353899084664
| 11>   O           0.20168413713677     -0.69984956051276     -2.46774717927174
| 12>   C          -1.01883323105527      0.70527441398974     -0.37987360016232
| 13>   C          -1.53793356800379      0.78224828838517      0.92870904487439
| 14>   C          -2.40633380258226      1.82782596353847      1.27882531585249
| 15>   C          -2.76394732690381      2.79522469498617      0.32363221735266
| 16>   C          -2.25901697827485      2.71227803769839     -0.98519076588349
| 17>   C          -1.39129563030991      1.66760829905296     -1.33933292686320
| 18>   C           1.76415119418781     -0.23547244548815     -0.20642946629127
| 19>   C           1.95684070816352      0.06123473202465      1.15795884918015
| 20>   C           3.25033978278957      0.30329421446238      1.64535522222397
| 21>   C           4.35241484061525      0.25327297447969      0.77300082384883
| 22>   C           4.16049969316764     -0.03517787960639     -0.58867647273227
| 23>   C           2.86818999838179     -0.27898135001554     -1.08066645709689
| 24>   H          -2.88348221030063     -2.39334500373739      1.20279717681884
| 25>   H          -3.87672485520499     -2.88877489294972     -0.31377523670530
| 26>   H          -1.84570530922946     -2.77595514115203     -1.71035820129960
| 27>   H          -0.40598807816394     -2.03942823398353      0.97587218307241
| 28>   H           0.34599730602770     -2.90361545977238     -0.40605097828917
| 29>   H          -1.27988559684560      0.02003411889175      1.67975329823330
| 30>   H          -2.81256224673233      1.88421106436131      2.30039150498769
| 31>   H          -3.44665710568982      3.61332443008187      0.60028078660689
| 32>   H          -2.54760522398499      3.46361934976964     -1.73628843306339
| 33>   H          -0.99589535161983      1.56807094620874     -2.36221285169702
| 34>   H           1.09770182077232      0.11925299452415      1.84390481361699
| 35>   H           3.40014028464476      0.53758503230950      2.71051340078862
| 36>   H           5.36575727863085      0.44555590033173      1.15790287328156
| 37>   H           5.02263420796386     -0.06746597219667     -1.27260451678457
| 38>   H           2.68382330686165     -0.49905225084398     -2.14396863875688
| 39> **                         ****END OF INPUT****

CARTESIAN COORDINATES (ANGSTROEM)
---------------------------------
  C     -2.903348   -2.617493    0.123018
  C     -1.789228   -2.563714   -0.628478
  C     -0.434713   -2.162851   -0.126724
  P      0.128982   -0.598738   -0.953539
  O      0.201684   -0.699850   -2.467747
  C     -1.018833    0.705274   -0.379874
  C     -1.537934    0.782248    0.928709
  C     -2.406334    1.827826    1.278825
  C     -2.763947    2.795225    0.323632
  C     -2.259017    2.712278   -0.985191
  C     -1.391296    1.667608   -1.339333
  C      1.764151   -0.235472   -0.206429
  C      1.956841    0.061235    1.157959
  C      3.250340    0.303294    1.645355
  C      4.352415    0.253273    0.773001
  C      4.160500   -0.035178   -0.588676
  C      2.868190   -0.278981   -1.080666
  H     -2.883482   -2.393345    1.202797
  H     -3.876725   -2.888775   -0.313775
  H     -1.845705   -2.775955   -1.710358
  H     -0.405988   -2.039428    0.975872
  H      0.345997   -2.903615   -0.406051
  H     -1.279886    0.020034    1.679753
  H     -2.812562    1.884211    2.300392
  H     -3.446657    3.613324    0.600281
  H     -2.547605    3.463619   -1.736288
  H     -0.995895    1.568071   -2.362213
  H      1.097702    0.119253    1.843905
  H      3.400140    0.537585    2.710513
  H      5.365757    0.445556    1.157903
  H      5.022634   -0.067466   -1.272605
  H      2.683823   -0.499052   -2.143969

 Total Charge           Charge          ....    0
 Multiplicity           Mult            ....    1
 Number of Electrons    NEL             ....  128
 Basis Dimension        Dim             ....  623

ORBITAL ENERGIES
----------------

  NO   OCC          E(Eh)            E(eV)
   0   2.0000     -78.097366     -2125.1374
   1   2.0000     -19.567753      -532.4656
   2   2.0000     -10.566735      -287.5355
   3   2.0000     -10.565569      -287.5038
   4   2.0000     -10.560894      -287.3765
   5   2.0000     -10.560848      -287.3753
   6   2.0000     -10.560815      -287.3744
   7   2.0000     -10.560766      -287.3731
   8   2.0000     -10.559979      -287.3516
   9   2.0000     -10.559741      -287.3452
  10   2.0000     -10.559680      -287.3435
  11   2.0000     -10.557737      -287.2906
  12   2.0000     -10.557683      -287.2892
  13   2.0000     -10.556924      -287.2685
  14   2.0000     -10.556743      -287.2636
  15   2.0000     -10.554999      -287.2161
  16   2.0000     -10.541965      -286.8614
  17   2.0000      -6.903739      -187.8603
  18   2.0000      -5.020858      -136.6245
  19   2.0000      -5.020657      -136.6190
  20   2.0000      -5.019106      -136.5768
  21   2.0000      -1.063878       -28.9496
  22   2.0000      -0.966455       -26.2986
  23   2.0000      -0.963423       -26.2161
  24   2.0000      -0.899931       -24.4884
  25   2.0000      -0.861727       -23.4488
  26   2.0000      -0.850370       -23.1397
  27   2.0000      -0.849471       -23.1153
  28   2.0000      -0.846718       -23.0404
  29   2.0000      -0.794653       -21.6236
  30   2.0000      -0.718366       -19.5477
  31   2.0000      -0.698168       -18.9981
  32   2.0000      -0.694543       -18.8995
  33   2.0000      -0.686322       -18.6758
  34   2.0000      -0.648061       -17.6346
  35   2.0000      -0.627441       -17.0736
  36   2.0000      -0.600242       -16.3334
  37   2.0000      -0.583480       -15.8773
  38   2.0000      -0.546713       -14.8768
  39   2.0000      -0.532890       -14.5007
  40   2.0000      -0.529301       -14.4030
  41   2.0000      -0.525371       -14.2961
  42   2.0000      -0.523170       -14.2362
  43   2.0000      -0.508784       -13.8447
  44   2.0000      -0.496718       -13.5164
  45   2.0000      -0.494058       -13.4440
  46   2.0000      -0.490412       -13.3448
  47   2.0000      -0.478945       -13.0327
  48   2.0000      -0.459888       -12.5142
  49   2.0000      -0.450690       -12.2639
  50   2.0000      -0.444418       -12.0932
  51   2.0000      -0.435072       -11.8389
  52   2.0000      -0.419789       -11.4230
  53   2.0000      -0.416453       -11.3323
  54   2.0000      -0.410668       -11.1749
  55   2.0000      -0.405627       -11.0377
  56   2.0000      -0.400989       -10.9115
  57   2.0000      -0.349720        -9.5164
  58   2.0000      -0.338408        -9.2085
  59   2.0000      -0.326898        -8.8953
  60   2.0000      -0.318806        -8.6751
  61   2.0000      -0.317190        -8.6312
  62   2.0000      -0.313709        -8.5365
  63   2.0000      -0.306893        -8.3510
  64   0.0000      -0.016164        -0.4398
  65   0.0000      -0.000172        -0.0047
  66   0.0000       0.006005         0.1634
  67   0.0000       0.010550         0.2871
  68   0.0000       0.033148         0.9020

MULLIKEN ATOMIC CHARGES
-----------------------
   0 C :   -0.296516
   1 C :   -0.085002
   2 C :   -0.428254
   3 P :    0.622622
   4 O :   -0.601959
   5 C :    0.011192
   6 C :   -0.240013
   7 C :   -0.159099
   8 C :   -0.136783
   9 C :   -0.135980
  10 C :   -0.149223
  11 C :   -0.056751
  12 C :   -0.164529
  13 C :   -0.164469
  14 C :   -0.135516
  15 C :   -0.138954
  16 C :   -0.146201
  17 H :    0.125760
  18 H :    0.138450
  19 H :    0.169523
  20 H :    0.185698
  21 H :    0.186371
  22 H :    0.171088
  23 H :    0.146630
  24 H :    0.148913
  25 H :    0.150206
  26 H :    0.189801
  27 H :    0.152334
  28 H :    0.146016
  29 H :    0.149355
  30 H :    0.149917
  31 H :    0.195375
Sum of atomic charges:   -0.0000000

LOEWDIN ATOMIC CHARGES
----------------------
   0 C :   -0.213275
   1 C :   -0.223013
   2 C :   -0.345558
   3 P :    0.656964
   4 O :   -0.312865
   5 C :   -0.228356
   6 C :   -0.139007
   7 C :   -0.140702
   8 C :   -0.131179
   9 C :   -0.134359
  10 C :   -0.112492
  11 C :   -0.233757
  12 C :   -0.132994
  13 C :   -0.140331
  14 C :   -0.132142
  15 C :   -0.136236
  16 C :   -0.117454
  17 H :    0.122872
  18 H :    0.127569
  19 H :    0.154129
  20 H :    0.144454
  21 H :    0.156917
  22 H :    0.144856
  23 H :    0.148503
  24 H :    0.148808
  25 H :    0.149778
  26 H :    0.161634
  27 H :    0.148196
  28 H :    0.148623
  29 H :    0.148793
  30 H :    0.149645
  31 H :    0.161978

  Mayer bond orders larger than 0.100000
B(  0-C ,  1-C ) :   1.8719 B(  0-C , 17-H ) :   0.9755 B(  0-C , 18-H ) :   0.9691
B(  1-C ,  2-C ) :   0.9425 B(  1-C , 19-H ) :   0.9448 B(  2-C ,  3-P ) :   0.8917
B(  2-C , 20-H ) :   0.9491 B(  2-C , 21-H ) :   0.9411 B(  3-P ,  4-O ) :   1.9447
B(  3-P ,  5-C ) :   0.9055 B(  3-P , 11-C ) :   0.9074 B(  5-C ,  6-C ) :   1.3099
B(  5-C , 10-C ) :   1.4288 B(  6-C ,  7-C ) :   1.5085 B(  6-C , 22-H ) :   0.9226
B(  7-C ,  8-C ) :   1.4462 B(  7-C , 23-H ) :   0.9426 B(  8-C ,  9-C ) :   1.4391
B(  8-C , 24-H ) :   0.9454 B(  9-C , 10-C ) :   1.4341 B(  9-C , 25-H ) :   0.9473
B( 10-C , 26-H ) :   0.9079 B( 11-C , 12-C ) :   1.3656 B( 11-C , 16-C ) :   1.4112
B( 12-C , 13-C ) :   1.5126 B( 12-C , 27-H ) :   0.9039 B( 13-C , 14-C ) :   1.4364
B( 13-C , 28-H ) :   0.9452 B( 14-C , 15-C ) :   1.4410 B( 14-C , 29-H ) :   0.9453
B( 15-C , 16-C ) :   1.4271 B( 15-C , 30-H ) :   0.9479 B( 16-C , 31-H ) :   0.9072

Dispersion correction           -0.001910484
FINAL SINGLE POINT ENERGY      -997.173432324487

DIPOLE MOMENT
-------------

Method             : SCF
Type of density    : Electron Density
Multiplicity       :   1
Irrep              :   0
Energy             :  -997.1715218409082127 Eh
Relativity type    :
Basis              : AO
                                X                 Y                 Z
Electronic contribution:      3.658265507       2.012793690      -4.670650080
Nuclear contribution   :     -3.638484661      -1.650702071       6.220034706
                        -----------------------------------------
Total Dipole Moment    :      0.019780846       0.362091619       1.549384626
                        -----------------------------------------
Magnitude (a.u.)       :      1.591255586
Magnitude (Debye)      :      4.044650267

Rotational constants in cm-1:             0.019671             0.010544             0.008875
Rotational constants in MHz :           589.732276           316.095063           266.060556

                             ****ORCA TERMINATED NORMALLY****
TOTAL RUN TIME: 0 days 0 hours 1 minutes 40 seconds 277 msec
