                         Program Version 6.0.0  -   RELEASE   -
|  1> ! RIJONX B3LYP def2-SVP D3BJ TIGHTSCF Opt
|  2> %pal
|  3> nprocs 6
|  4> end
|  5>
|  6> * xyz 0 1
|  7> C     -2.923798   -3.507115    0.172678
|  8> C     -1.784779   -3.103210    0.863259
|  9> C     -1.023132   -2.026815    0.396558
| 10> C     -1.387953   -1.335052   -0.768095
| 11> C     -2.541489   -1.760369   -1.451289
| 12> C     -3.303197   -2.835626   -0.985283
| 13> P     -0.462648    0.076216   -1.455781
| 14> C     -1.274802    1.539507   -0.734402
| 15> C     -2.235571    1.487916    0.286084
| 16> C     -2.816136    2.657146    0.788979
| 17> C     -2.448646    3.898417    0.277664
| 18> C     -1.501566    3.972816   -0.738566
| 19> C     -0.922256    2.804165   -1.240777
| 20> C      1.148527   -0.002552   -0.605913
| 21> C      2.116775   -0.887768   -1.114398
| 22> C      3.378665   -1.004603   -0.519906
| 23> C      3.698510   -0.232290    0.599299
| 24> C      2.748262    0.653207    1.115595
| 25> C      1.487153    0.766366    0.517406
| 26> C      5.019414   -0.317986    1.267105
| 27> O      5.366561    0.316451    2.246014
| 28> O      5.847402   -1.197950    0.676632
| 29> H     -3.514164   -4.343840    0.536471
| 30> H     -1.484753   -3.624643    1.768745
| 31> H     -0.145712   -1.740240    0.970122
| 32> H     -2.862895   -1.252198   -2.359072
| 33> H     -4.191610   -3.146091   -1.529000
| 34> H     -2.551618    0.541060    0.716027
| 35> H     -3.557888    2.593565    1.581194
| 36> H     -2.901556    4.805355    0.669190
| 37> H     -1.211950    4.938790   -1.143903
| 38> H     -0.184010    2.892730   -2.036262
| 39> H      1.895676   -1.504110   -1.985085
| 40> H      4.099789   -1.701022   -0.940749
| 41> H      2.981658    1.262129    1.987240
| 42> H      0.778776    1.464471    0.957390
| 43> H      6.664962   -1.146827    1.214830
| 44> **                         ****END OF INPUT****
 Total Charge           Charge          ....    0
 Multiplicity           Mult            ....    1
 Number of Electrons    NEL             ....  160
Dispersion correction           -0.092461423
FINAL SINGLE POINT ENERGY     -1223.650336115732
Dispersion correction             ... done (  0.1 sec)
Dispersion correction           -0.093254493
FINAL SINGLE POINT ENERGY     -1223.652864178370
Dispersion correction             ... done (  0.1 sec)
Dispersion correction           -0.093407217
FINAL SINGLE POINT ENERGY     -1223.653533086548
Dispersion correction             ... done (  0.1 sec)
FINAL SINGLE POINT ENERGY     -1223.653667611092
FINAL SINGLE POINT ENERGY     -1223.653673251085
FINAL SINGLE POINT ENERGY     -1223.653696643678
Dispersion correction             ... done (  0.1 sec)
Dispersion correction           -0.093340715
FINAL SINGLE POINT ENERGY     -1223.653702723828
Dispersion correction             ... done (  0.1 sec)
Dispersion correction           -0.093324842
FINAL SINGLE POINT ENERGY     -1223.653704188122
Dispersion correction             ... done (  0.1 sec)
                    ***********************HURRAY********************

CARTESIAN COORDINATES (ANGSTROEM)
---------------------------------
  C     -2.893161   -3.451896    0.172551
  C     -1.735837   -3.036266    0.837293
  C     -0.976750   -1.975562    0.334395
  C     -1.364422   -1.320408   -0.845552
  C     -2.522587   -1.754534   -1.513185
  C     -3.286914   -2.806494   -1.004014
  P     -0.451246    0.103875   -1.589474
  C     -1.269622    1.542166   -0.767626
  C     -2.123098    1.433175    0.341463
  C     -2.694126    2.575801    0.909546
  C     -2.416813    3.839885    0.381260
  C     -1.570731    3.958367   -0.726090
  C     -1.009952    2.816323   -1.301738
  C      1.148581    0.015388   -0.666049
  C      2.082385   -0.947336   -1.092436
  C      3.314046   -1.079650   -0.456404
  C      3.644526   -0.231836    0.613468
  C      2.725777    0.739904    1.033779
  C      1.488569    0.861562    0.402156
  C      4.947727   -0.323858    1.326558
  O      5.279971    0.380727    2.251858
  O      5.750869   -1.293377    0.836423
  H     -3.485424   -4.280936    0.568153
  H     -1.421940   -3.537957    1.756448
  H     -0.079070   -1.653653    0.865797
  H     -2.826282   -1.260063   -2.440511
  H     -4.187718   -3.129672   -1.532178
  H     -2.340561    0.451218    0.765950
  H     -3.357614    2.476754    1.772724
  H     -2.863135    4.731737    0.828447
  H     -1.353939    4.942940   -1.148518
  H     -0.359298    2.911685   -2.176105
  H      1.835102   -1.603792   -1.931632
  H      4.029985   -1.833108   -0.786968
  H      2.998921    1.390348    1.867039
  H      0.778985    1.615752    0.746297
  H      6.564798   -1.267208    1.366874

 Multiplicity           Mult            ....    1
 Number of Electrons    NEL             ....  160
 Basis Dimension        Dim             ....  387

ORBITAL ENERGIES
----------------

  NO   OCC          E(Eh)            E(eV)
   0   2.0000     -77.057458     -2096.8400
   1   2.0000     -19.178915      -521.8848
   2   2.0000     -19.119265      -520.2616
   3   2.0000     -10.315238      -280.6919
   4   2.0000     -10.203739      -277.6578
   5   2.0000     -10.203656      -277.6556
   6   2.0000     -10.201320      -277.5920
   7   2.0000     -10.199440      -277.5409
   8   2.0000     -10.199001      -277.5289
   9   2.0000     -10.197329      -277.4834
  10   2.0000     -10.196941      -277.4729
  11   2.0000     -10.196422      -277.4587
  12   2.0000     -10.196267      -277.4545
  13   2.0000     -10.195898      -277.4445
  14   2.0000     -10.195877      -277.4439
  15   2.0000     -10.195314      -277.4286
  16   2.0000     -10.195136      -277.4237
  17   2.0000     -10.194991      -277.4198
  18   2.0000     -10.194735      -277.4128
  19   2.0000     -10.194543      -277.4076
  20   2.0000     -10.194253      -277.3997
  21   2.0000     -10.193878      -277.3895
  22   2.0000      -6.553250      -178.3230
  23   2.0000      -4.718682      -128.4019
  24   2.0000      -4.718660      -128.4013
  25   2.0000      -4.715780      -128.3229
  26   2.0000      -1.094416       -29.7806
  27   2.0000      -1.000691       -27.2302
  28   2.0000      -0.861227       -23.4352
  29   2.0000      -0.852209       -23.1898
  30   2.0000      -0.848375       -23.0855
  31   2.0000      -0.777072       -21.1452
  32   2.0000      -0.751155       -20.4400
  33   2.0000      -0.747234       -20.3333
  34   2.0000      -0.741823       -20.1860
  35   2.0000      -0.741250       -20.1704
  36   2.0000      -0.736796       -20.0492
  37   2.0000      -0.670233       -18.2380
  38   2.0000      -0.632781       -17.2188
  39   2.0000      -0.612804       -16.6752
  40   2.0000      -0.604008       -16.4359
  41   2.0000      -0.602616       -16.3980
  42   2.0000      -0.593171       -16.1410
  43   2.0000      -0.583018       -15.8647
  44   2.0000      -0.558665       -15.2020
  45   2.0000      -0.529209       -14.4005
  46   2.0000      -0.518866       -14.1191
  47   2.0000      -0.504267       -13.7218
  48   2.0000      -0.481969       -13.1151
  49   2.0000      -0.462571       -12.5872
  50   2.0000      -0.459680       -12.5085
  51   2.0000      -0.458364       -12.4727
  52   2.0000      -0.452387       -12.3101
  53   2.0000      -0.450700       -12.2642
  54   2.0000      -0.450262       -12.2523
  55   2.0000      -0.443161       -12.0590
  56   2.0000      -0.436975       -11.8907
  57   2.0000      -0.428622       -11.6634
  58   2.0000      -0.425431       -11.5766
  59   2.0000      -0.424342       -11.5469
  60   2.0000      -0.410301       -11.1649
  61   2.0000      -0.398771       -10.8511
  62   2.0000      -0.381493       -10.3810
  63   2.0000      -0.373451       -10.1621
  64   2.0000      -0.372098       -10.1253
  65   2.0000      -0.369301       -10.0492
  66   2.0000      -0.351062        -9.5529
  67   2.0000      -0.350254        -9.5309
  68   2.0000      -0.349141        -9.5006
  69   2.0000      -0.333172        -9.0661
  70   2.0000      -0.327509        -8.9120
  71   2.0000      -0.321542        -8.7496
  72   2.0000      -0.283210        -7.7065
  73   2.0000      -0.279096        -7.5946
  74   2.0000      -0.267236        -7.2719
  75   2.0000      -0.266393        -7.2489
  76   2.0000      -0.264163        -7.1882
  77   2.0000      -0.258755        -7.0411
  78   2.0000      -0.257082        -6.9956
  79   2.0000      -0.221693        -6.0326
  80   0.0000      -0.056942        -1.5495
  81   0.0000      -0.029856        -0.8124
  82   0.0000      -0.025908        -0.7050
  83   0.0000      -0.017546        -0.4775
  84   0.0000      -0.009106        -0.2478

MULLIKEN ATOMIC CHARGES
-----------------------
   0 C :    0.024684
   1 C :    0.023910
   2 C :    0.020854
   3 C :   -0.167778
   4 C :    0.028196
   5 C :    0.021269
   6 P :    0.367987
   7 C :   -0.169960
   8 C :    0.020468
   9 C :    0.026336
  10 C :    0.024861
  11 C :    0.021381
  12 C :    0.023573
  13 C :   -0.149774
  14 C :    0.030328
  15 C :    0.023177
  16 C :   -0.038584
  17 C :    0.018947
  18 C :    0.022272
  19 C :    0.166082
  20 O :   -0.209848
  21 O :   -0.176539
  22 H :   -0.013212
  23 H :   -0.015107
  24 H :   -0.001301
  25 H :   -0.014600
  26 H :   -0.013366
  27 H :   -0.002734
  28 H :   -0.015725
  29 H :   -0.013048
  30 H :   -0.013163
  31 H :   -0.014280
  32 H :   -0.012580
  33 H :   -0.005455
  34 H :   -0.002065
  35 H :    0.004735
  36 H :    0.180058
Sum of atomic charges:   -0.0000000

LOEWDIN ATOMIC CHARGES
----------------------
   0 C :   -0.020484
   1 C :   -0.024486
   2 C :   -0.029864
   3 C :   -0.174325
   4 C :   -0.027279
   5 C :   -0.024080
   6 P :    0.518723
   7 C :   -0.176209
   8 C :   -0.028176
   9 C :   -0.023864
  10 C :   -0.020368
  11 C :   -0.024464
  12 C :   -0.029203
  13 C :   -0.156094
  14 C :   -0.028975
  15 C :    0.001701
  16 C :   -0.075260
  17 C :    0.013809
  18 C :   -0.031985
  19 C :    0.084849
  20 O :   -0.184423
  21 O :   -0.042512
  22 H :    0.027945
  23 H :    0.028264
  24 H :    0.029082
  25 H :    0.025331
  26 H :    0.028470
  27 H :    0.029556
  28 H :    0.028064
  29 H :    0.028012
  30 H :    0.028561
  31 H :    0.025155
  32 H :    0.027349
  33 H :    0.033108
  34 H :    0.036272
  35 H :    0.032120
  36 H :    0.095680

  Mayer bond orders larger than 0.100000
B(  0-C ,  1-C ) :   1.3801 B(  0-C ,  5-C ) :   1.3780 B(  0-C , 22-H ) :   0.9847
B(  1-C ,  2-C ) :   1.3866 B(  1-C , 23-H ) :   0.9843 B(  2-C ,  3-C ) :   1.3793
B(  2-C , 24-H ) :   0.9791 B(  3-C ,  4-C ) :   1.3733 B(  3-C ,  6-P ) :   0.9390
B(  4-C ,  5-C ) :   1.4018 B(  4-C , 25-H ) :   0.9821 B(  5-C , 26-H ) :   0.9850
B(  6-P ,  7-C ) :   0.9329 B(  6-P , 13-C ) :   0.9255 B(  7-C ,  8-C ) :   1.3826
B(  7-C , 12-C ) :   1.3706 B(  8-C ,  9-C ) :   1.3870 B(  8-C , 27-H ) :   0.9798
B(  9-C , 10-C ) :   1.3800 B(  9-C , 28-H ) :   0.9838 B( 10-C , 11-C ) :   1.3780
B( 10-C , 29-H ) :   0.9846 B( 11-C , 12-C ) :   1.4023 B( 11-C , 30-H ) :   0.9852
B( 12-C , 31-H ) :   0.9821 B( 13-C , 14-C ) :   1.3507 B( 13-C , 18-C ) :   1.3733
B( 14-C , 15-C ) :   1.3958 B( 14-C , 32-H ) :   0.9823 B( 15-C , 16-C ) :   1.3421
B( 15-C , 33-H ) :   0.9874 B( 16-C , 17-C ) :   1.3811 B( 16-C , 19-C ) :   0.9353
B( 17-C , 18-C ) :   1.3590 B( 17-C , 34-H ) :   0.9883 B( 18-C , 35-H ) :   0.9827
B( 19-C , 20-O ) :   2.1154 B( 19-C , 21-O ) :   1.2555 B( 21-O , 36-H ) :   0.9447

Dispersion correction           -0.093322285
FINAL SINGLE POINT ENERGY     -1223.653704351834

DIPOLE MOMENT
-------------

Method             : SCF
Type of density    : Electron Density
Multiplicity       :   1
Irrep              :   0
Energy             : -1223.5603820665585317 Eh
Relativity type    :
Basis              : AO
                                X                 Y                 Z
Electronic contribution:      8.987280113      -0.262324236      -3.004321061
Nuclear contribution   :     -9.532607309      -0.099216029       2.971691256
                        -----------------------------------------
Total Dipole Moment    :     -0.545327197      -0.361540265      -0.032629805
                        -----------------------------------------
Magnitude (a.u.)       :      0.655101380
Magnitude (Debye)      :      1.665135378

Rotational constants in cm-1:             0.011225             0.005843             0.004389
Rotational constants in MHz :           336.523606           175.167401           131.567283

                             ****ORCA TERMINATED NORMALLY****
TOTAL RUN TIME: 0 days 0 hours 7 minutes 59 seconds 239 msec
