                         Program Version 6.0.0  -   RELEASE   -
|  1> ! RIJONX B3LYP def2-SVP D3BJ TIGHTSCF Opt
|  2> %pal
|  3> nprocs 6
|  4> end
|  5>
|  6> * xyz 0 1
|  7> C     -2.770365   -3.236144   -0.608013
|  8> C     -1.990317   -3.526482    0.506803
|  9> C     -1.178125   -2.537240    1.068385
| 10> C     -1.127785   -1.240494    0.525182
| 11> C     -1.924284   -0.969186   -0.597142
| 12> C     -2.737758   -1.958559   -1.159493
| 13> P     -0.038247   -0.020818    1.330177
| 14> C      1.605642   -0.356379    0.617614
| 15> C      2.721520    0.248737    1.224082
| 16> C      4.013995    0.038643    0.735209
| 17> C      4.215085   -0.783767   -0.368779
| 18> C      3.125091   -1.394681   -0.982061
| 19> C      1.831820   -1.183544   -0.492464
| 20> C     -0.527577    1.569809    0.586414
| 21> C     -1.641799    2.234991    1.129731
| 22> C     -2.077040    3.458845    0.613617
| 23> C     -1.403557    4.042318   -0.454823
| 24> C     -0.296843    3.402446   -1.005427
| 25> C      0.137850    2.177380   -0.488619
| 26> H     -3.403469   -4.003160   -1.045838
| 27> H     -2.011656   -4.521745    0.942859
| 28> H     -0.577129   -2.792504    1.939730
| 29> H     -1.925742    0.013244   -1.062219
| 30> H     -3.346110   -1.726215   -2.029893
| 31> H      2.593191    0.898165    2.088589
| 32> H      4.860730    0.518086    1.219283
| 33> H      5.219029   -0.949583   -0.750125
| 34> H      3.276861   -2.039028   -1.844300
| 35> H      1.009200   -1.676370   -1.004210
| 36> H     -2.188405    1.800623    1.965282
| 37> H     -2.941407    3.953493    1.048754
| 38> H     -1.739275    4.994269   -0.857200
| 39> H      0.233548    3.854583   -1.839650
| 40> H      1.003328    1.710264   -0.951453
| 41> **                         ****END OF INPUT****
 Total Charge           Charge          ....    0
 Multiplicity           Mult            ....    1
 Number of Electrons    NEL             ....  138
Dispersion correction           -0.084962478
FINAL SINGLE POINT ENERGY     -1035.288082281375
Dispersion correction             ... done (  0.1 sec)
Dispersion correction           -0.085717245
FINAL SINGLE POINT ENERGY     -1035.290267658787
Dispersion correction             ... done (  0.1 sec)
Dispersion correction           -0.085871830
FINAL SINGLE POINT ENERGY     -1035.290784951312
Dispersion correction             ... done (  0.1 sec)
FINAL SINGLE POINT ENERGY     -1035.290904129716
Dispersion correction             ... done (  0.1 sec)
Dispersion correction           -0.085753582
FINAL SINGLE POINT ENERGY     -1035.290918005503
Dispersion correction             ... done (  0.1 sec)
Dispersion correction           -0.085775821
FINAL SINGLE POINT ENERGY     -1035.290920872385
Dispersion correction             ... done (  0.1 sec)
                    ***********************HURRAY********************

CARTESIAN COORDINATES (ANGSTROEM)
---------------------------------
  C     -2.713866   -3.204758   -0.658039
  C     -1.962488   -3.520367    0.478927
  C     -1.182653   -2.540021    1.095351
  C     -1.125094   -1.235115    0.575112
  C     -1.884249   -0.927890   -0.564824
  C     -2.675209   -1.906760   -1.174500
  P     -0.043740   -0.023259    1.458845
  C      1.594482   -0.356831    0.668717
  C      2.722662    0.239640    1.258658
  C      3.994836    0.054775    0.713975
  C      4.160821   -0.746948   -0.420252
  C      3.047765   -1.356496   -1.005654
  C      1.771862   -1.161638   -0.467554
  C     -0.525502    1.560435    0.634925
  C     -1.636593    2.243260    1.160297
  C     -2.077111    3.437528    0.586747
  C     -1.399661    3.978414   -0.511117
  C     -0.285100    3.315209   -1.031785
  C      0.148753    2.112521   -0.465470
  H     -3.331622   -3.968636   -1.137138
  H     -1.991294   -4.531875    0.892523
  H     -0.606852   -2.788190    1.991976
  H     -1.854516    0.080672   -0.981512
  H     -3.261864   -1.652648   -2.061377
  H      2.598828    0.857717    2.152881
  H      4.860925    0.530695    1.181318
  H      5.156909   -0.899534   -0.843568
  H      3.170850   -1.986419   -1.890726
  H      0.908273   -1.636250   -0.937384
  H     -2.161620    1.830213    2.026725
  H     -2.946531    3.952822    1.003406
  H     -1.737716    4.917590   -0.956470
  H      0.250656    3.733690   -1.888007
  H      1.015661    1.598453   -0.885007

 Multiplicity           Mult            ....    1
 Number of Electrons    NEL             ....  138
 Basis Dimension        Dim             ....  345

ORBITAL ENERGIES
----------------

  NO   OCC          E(Eh)            E(eV)
   0   2.0000     -77.050385     -2096.6476
   1   2.0000     -10.191548      -277.3261
   2   2.0000     -10.191536      -277.3258
   3   2.0000     -10.191470      -277.3240
   4   2.0000     -10.191191      -277.3164
   5   2.0000     -10.191181      -277.3161
   6   2.0000     -10.191137      -277.3149
   7   2.0000     -10.191095      -277.3138
   8   2.0000     -10.191082      -277.3134
   9   2.0000     -10.191034      -277.3121
  10   2.0000     -10.190449      -277.2962
  11   2.0000     -10.190440      -277.2960
  12   2.0000     -10.190396      -277.2948
  13   2.0000     -10.190142      -277.2879
  14   2.0000     -10.190131      -277.2876
  15   2.0000     -10.190079      -277.2861
  16   2.0000     -10.189279      -277.2644
  17   2.0000     -10.189255      -277.2637
  18   2.0000     -10.189190      -277.2620
  19   2.0000      -6.546136      -178.1294
  20   2.0000      -4.711566      -128.2082
  21   2.0000      -4.711562      -128.2081
  22   2.0000      -4.708654      -128.1290
  23   2.0000      -0.851841       -23.1798
  24   2.0000      -0.843597       -22.9554
  25   2.0000      -0.843573       -22.9548
  26   2.0000      -0.763748       -20.7826
  27   2.0000      -0.737959       -20.0809
  28   2.0000      -0.737948       -20.0806
  29   2.0000      -0.736644       -20.0451
  30   2.0000      -0.731769       -19.9124
  31   2.0000      -0.731759       -19.9122
  32   2.0000      -0.642772       -17.4907
  33   2.0000      -0.600186       -16.3319
  34   2.0000      -0.600152       -16.3310
  35   2.0000      -0.598541       -16.2871
  36   2.0000      -0.587942       -15.9987
  37   2.0000      -0.587930       -15.9984
  38   2.0000      -0.552719       -15.0402
  39   2.0000      -0.514305       -13.9949
  40   2.0000      -0.514293       -13.9946
  41   2.0000      -0.490706       -13.3528
  42   2.0000      -0.454621       -12.3709
  43   2.0000      -0.454585       -12.3699
  44   2.0000      -0.453304       -12.3350
  45   2.0000      -0.445295       -12.1171
  46   2.0000      -0.445286       -12.1168
  47   2.0000      -0.438037       -11.9196
  48   2.0000      -0.420845       -11.4518
  49   2.0000      -0.420188       -11.4339
  50   2.0000      -0.420151       -11.4329
  51   2.0000      -0.405973       -11.0471
  52   2.0000      -0.405904       -11.0452
  53   2.0000      -0.372555       -10.1377
  54   2.0000      -0.367362        -9.9964
  55   2.0000      -0.367310        -9.9950
  56   2.0000      -0.362641        -9.8680
  57   2.0000      -0.344916        -9.3856
  58   2.0000      -0.344904        -9.3853
  59   2.0000      -0.344362        -9.3706
  60   2.0000      -0.322342        -8.7714
  61   2.0000      -0.322299        -8.7702
  62   2.0000      -0.275996        -7.5102
  63   2.0000      -0.259950        -7.0736
  64   2.0000      -0.259484        -7.0609
  65   2.0000      -0.259384        -7.0582
  66   2.0000      -0.252125        -6.8607
  67   2.0000      -0.252113        -6.8603
  68   2.0000      -0.214751        -5.8437
  69   0.0000      -0.024049        -0.6544
  70   0.0000      -0.023942        -0.6515
  71   0.0000      -0.020547        -0.5591
  72   0.0000      -0.007174        -0.1952
  73   0.0000      -0.003016        -0.0821

MULLIKEN ATOMIC CHARGES
-----------------------
   0 C :    0.023221
   1 C :    0.020503
   2 C :    0.025303
   3 C :   -0.166064
   4 C :    0.017759
   5 C :    0.024945
   6 P :    0.361849
   7 C :   -0.166499
   8 C :    0.025694
   9 C :    0.020591
  10 C :    0.023248
  11 C :    0.024746
  12 C :    0.018108
  13 C :   -0.166333
  14 C :    0.025456
  15 C :    0.020583
  16 C :    0.023285
  17 C :    0.024873
  18 C :    0.018020
  19 H :   -0.015671
  20 H :   -0.015529
  21 H :   -0.016093
  22 H :   -0.001190
  23 H :   -0.017986
  24 H :   -0.016093
  25 H :   -0.015494
  26 H :   -0.015622
  27 H :   -0.017936
  28 H :   -0.001264
  29 H :   -0.016068
  30 H :   -0.015483
  31 H :   -0.015614
  32 H :   -0.017955
  33 H :   -0.001290
Sum of atomic charges:   -0.0000000

LOEWDIN ATOMIC CHARGES
----------------------
   0 C :   -0.023292
   1 C :   -0.025527
   2 C :   -0.028775
   3 C :   -0.173479
   4 C :   -0.030583
   5 C :   -0.025444
   6 P :    0.514264
   7 C :   -0.173489
   8 C :   -0.028721
   9 C :   -0.025515
  10 C :   -0.023206
  11 C :   -0.025507
  12 C :   -0.030444
  13 C :   -0.173499
  14 C :   -0.028773
  15 C :   -0.025567
  16 C :   -0.023177
  17 C :   -0.025470
  18 C :   -0.030372
  19 H :    0.026857
  20 H :    0.027522
  21 H :    0.024718
  22 H :    0.029336
  23 H :    0.027056
  24 H :    0.024705
  25 H :    0.027536
  26 H :    0.026874
  27 H :    0.027067
  28 H :    0.029343
  29 H :    0.024707
  30 H :    0.027538
  31 H :    0.026877
  32 H :    0.027069
  33 H :    0.029371

  Mayer bond orders larger than 0.100000
B(  0-C ,  1-C ) :   1.3754 B(  0-C ,  5-C ) :   1.3820 B(  0-C , 19-H ) :   0.9844
B(  1-C ,  2-C ) :   1.4058 B(  1-C , 20-H ) :   0.9848 B(  2-C ,  3-C ) :   1.3701
B(  2-C , 21-H ) :   0.9816 B(  3-C ,  4-C ) :   1.3868 B(  3-C ,  6-P ) :   0.9304
B(  4-C ,  5-C ) :   1.3831 B(  4-C , 22-H ) :   0.9793 B(  5-C , 23-H ) :   0.9838
B(  6-P ,  7-C ) :   0.9310 B(  6-P , 13-C ) :   0.9308 B(  7-C ,  8-C ) :   1.3706
B(  7-C , 12-C ) :   1.3860 B(  8-C ,  9-C ) :   1.4052 B(  8-C , 24-H ) :   0.9816
B(  9-C , 10-C ) :   1.3757 B(  9-C , 25-H ) :   0.9848 B( 10-C , 11-C ) :   1.3818
B( 10-C , 26-H ) :   0.9844 B( 11-C , 12-C ) :   1.3834 B( 11-C , 27-H ) :   0.9838
B( 12-C , 28-H ) :   0.9794 B( 13-C , 14-C ) :   1.3705 B( 13-C , 18-C ) :   1.3863
B( 14-C , 15-C ) :   1.4051 B( 14-C , 29-H ) :   0.9817 B( 15-C , 16-C ) :   1.3757
B( 15-C , 30-H ) :   0.9848 B( 16-C , 17-C ) :   1.3817 B( 16-C , 31-H ) :   0.9844
B( 17-C , 18-C ) :   1.3836 B( 17-C , 32-H ) :   0.9838 B( 18-C , 33-H ) :   0.9792

Dispersion correction           -0.085782498
FINAL SINGLE POINT ENERGY     -1035.290921349625

DIPOLE MOMENT
-------------

Method             : SCF
Type of density    : Electron Density
Multiplicity       :   1
Irrep              :   0
Energy             : -1035.2051388512959420 Eh
Relativity type    :
Basis              : AO
                                X                 Y                 Z
Electronic contribution:     -0.168267080      -0.089975290       5.640498694
Nuclear contribution   :      0.185259427       0.100050755      -6.171107080
                        -----------------------------------------
Total Dipole Moment    :      0.016992347       0.010075466      -0.530608385
                        -----------------------------------------
Magnitude (a.u.)       :      0.530976001
Magnitude (Debye)      :      1.349633737

Rotational constants in cm-1:             0.011898             0.011886             0.007068
Rotational constants in MHz :           356.684857           356.343214           211.880230

                             ****ORCA TERMINATED NORMALLY****
TOTAL RUN TIME: 0 days 0 hours 5 minutes 21 seconds 733 msec
