                         Program Version 6.0.0  -   RELEASE   -
|  1> ! RIJCOSX M062X def2-TZVP D3ZERO NormalSCF
|  2> %pal
|  3> nprocs 6
|  4> end
|  5>
|  6> * xyz 0 1
|  7>   C           2.77905160974405     -0.07549609468400     -1.99704493266315
|  8>   C           2.51531523305497     -1.03637639685326     -0.86469527152931
|  9>   C           3.53596390229807     -1.88998994560393     -0.39997076557266
| 10>   C           3.32327311799929     -2.77582282545714      0.66790321641707
| 11>   C           2.07110908611111     -2.81587218816083      1.30055678226645
| 12>   C           1.04246416039604     -1.96998695003168      0.85866244560202
| 13>   C           1.24622444675109     -1.08241742538667     -0.21882626209330
| 14>   P          -0.10998266378496     -0.01477265376349     -0.88274717627315
| 15>   C           0.29168476473252      1.62919652574911     -0.13635854157321
| 16>   C           1.36331217805984      1.80203598742432      0.76478864541502
| 17>   C           1.68518352852385      3.07182887273245      1.26761367735586
| 18>   C           0.92827028824735      4.18664359318989      0.87511658382061
| 19>   C          -0.14393105778179      4.02156951767740     -0.01554802255773
| 20>   C          -0.48128812664075      2.75660137968173     -0.53768498235442
| 21>   C          -1.65752475580070      2.60453374029221     -1.46949291150998
| 22>   C          -1.55927100955392     -0.55463821350080      0.13153009024449
| 23>   C          -2.03024776568675      0.20032165059646      1.22637395172785
| 24>   C          -3.17105843439623     -0.19773275963855      1.93964942704862
| 25>   C          -3.85160091654039     -1.36665345517796      1.56505266939108
| 26>   C          -3.38497530876332     -2.12692116974765      0.48138118526169
| 27>   C          -2.24519358970798     -1.74242286916440     -0.25333622717427
| 28>   C          -1.75343538336047     -2.59219357558533     -1.39866234778405
| 29>   H           2.84715547475286      0.96969469748488     -1.62563606482238
| 30>   H           1.94876492935007     -0.08832125066477     -2.73452108837881
| 31>   H           3.72530789777778     -0.31296517286168     -2.52065554511380
| 32>   H           4.52002488922727     -1.85819140034560     -0.89490153242475
| 33>   H           4.13798304129022     -3.43507109720908      1.00496030355113
| 34>   H           1.89312408378334     -3.50246019786047      2.14250294657807
| 35>   H           0.06246255172715     -1.99199270924351      1.35891677218332
| 36>   H           1.94841873279231      0.92429710638337      1.07849399990049
| 37>   H           2.52510116713077      3.18702611960599      1.96990340175552
| 38>   H           1.17142732344720      5.18821213147958      1.26204866573046
| 39>   H          -0.73886993312642      4.89719339851385     -0.32158731950523
| 40>   H          -1.40418156011131      1.95350494062011     -2.33281951156229
| 41>   H          -2.00340431749309      3.58480418841666     -1.85070990113076
| 42>   H          -2.51341014761954      2.11716711590691     -0.95459723726904
| 43>   H          -1.48961921719741      1.11152696911506      1.52390873693349
| 44>   H          -3.52430972237072      0.40473491570059      2.79064935063205
| 45>   H          -4.74864069636649     -1.68907927947868      2.11580732903851
| 46>   H          -3.91944188637201     -3.04499245438843      0.18836877473156
| 47>   H          -1.48833563185825     -1.96635531204489     -2.27689596756424
| 48>   H          -0.82956307481942     -3.14399019450824     -1.12082347683068
| 49>   H          -2.51333520784523     -3.33617925920951     -1.70667386989816
| 50> **                         ****END OF INPUT****

CARTESIAN COORDINATES (ANGSTROEM)
---------------------------------
  C      2.779052   -0.075496   -1.997045
  C      2.515315   -1.036376   -0.864695
  C      3.535964   -1.889990   -0.399971
  C      3.323273   -2.775823    0.667903
  C      2.071109   -2.815872    1.300557
  C      1.042464   -1.969987    0.858662
  C      1.246224   -1.082417   -0.218826
  P     -0.109983   -0.014773   -0.882747
  C      0.291685    1.629197   -0.136359
  C      1.363312    1.802036    0.764789
  C      1.685184    3.071829    1.267614
  C      0.928270    4.186644    0.875117
  C     -0.143931    4.021570   -0.015548
  C     -0.481288    2.756601   -0.537685
  C     -1.657525    2.604534   -1.469493
  C     -1.559271   -0.554638    0.131530
  C     -2.030248    0.200322    1.226374
  C     -3.171058   -0.197733    1.939649
  C     -3.851601   -1.366653    1.565053
  C     -3.384975   -2.126921    0.481381
  C     -2.245194   -1.742423   -0.253336
  C     -1.753435   -2.592194   -1.398662
  H      2.847155    0.969695   -1.625636
  H      1.948765   -0.088321   -2.734521
  H      3.725308   -0.312965   -2.520656
  H      4.520025   -1.858191   -0.894902
  H      4.137983   -3.435071    1.004960
  H      1.893124   -3.502460    2.142503
  H      0.062463   -1.991993    1.358917
  H      1.948419    0.924297    1.078494
  H      2.525101    3.187026    1.969903
  H      1.171427    5.188212    1.262049
  H     -0.738870    4.897193   -0.321587
  H     -1.404182    1.953505   -2.332820
  H     -2.003404    3.584804   -1.850710
  H     -2.513410    2.117167   -0.954597
  H     -1.489619    1.111527    1.523909
  H     -3.524310    0.404735    2.790649
  H     -4.748641   -1.689079    2.115807
  H     -3.919442   -3.044992    0.188369
  H     -1.488336   -1.966355   -2.276896
  H     -0.829563   -3.143990   -1.120823
  H     -2.513335   -3.336179   -1.706674

 Total Charge           Charge          ....    0
 Multiplicity           Mult            ....    1
 Number of Electrons    NEL             ....  162
 Basis Dimension        Dim             ....  814

ORBITAL ENERGIES
----------------

  NO   OCC          E(Eh)            E(eV)
   0   2.0000     -78.027089     -2123.2250
   1   2.0000     -10.559432      -287.3367
   2   2.0000     -10.559320      -287.3337
   3   2.0000     -10.559296      -287.3330
   4   2.0000     -10.552026      -287.1352
   5   2.0000     -10.551956      -287.1333
   6   2.0000     -10.551942      -287.1329
   7   2.0000     -10.548334      -287.0348
   8   2.0000     -10.548239      -287.0322
   9   2.0000     -10.548225      -287.0318
  10   2.0000     -10.547390      -287.0091
  11   2.0000     -10.547343      -287.0078
  12   2.0000     -10.547314      -287.0070
  13   2.0000     -10.545635      -286.9613
  14   2.0000     -10.545562      -286.9593
  15   2.0000     -10.545543      -286.9588
  16   2.0000     -10.545268      -286.9513
  17   2.0000     -10.545228      -286.9503
  18   2.0000     -10.545200      -286.9495
  19   2.0000     -10.534616      -286.6615
  20   2.0000     -10.534551      -286.6597
  21   2.0000     -10.534545      -286.6595
  22   2.0000      -6.843779      -186.2287
  23   2.0000      -4.958578      -134.9298
  24   2.0000      -4.958044      -134.9152
  25   2.0000      -4.958040      -134.9151
  26   2.0000      -0.963811       -26.2266
  27   2.0000      -0.954675       -25.9780
  28   2.0000      -0.954595       -25.9759
  29   2.0000      -0.872045       -23.7296
  30   2.0000      -0.867868       -23.6159
  31   2.0000      -0.867847       -23.6153
  32   2.0000      -0.855812       -23.2878
  33   2.0000      -0.832665       -22.6580
  34   2.0000      -0.832640       -22.6573
  35   2.0000      -0.775525       -21.1031
  36   2.0000      -0.769964       -20.9518
  37   2.0000      -0.769917       -20.9505
  38   2.0000      -0.726919       -19.7805
  39   2.0000      -0.684408       -18.6237
  40   2.0000      -0.684389       -18.6232
  41   2.0000      -0.667125       -18.1534
  42   2.0000      -0.656914       -17.8755
  43   2.0000      -0.656895       -17.8750
  44   2.0000      -0.620872       -16.8948
  45   2.0000      -0.574058       -15.6209
  46   2.0000      -0.573978       -15.6187
  47   2.0000      -0.555873       -15.1261
  48   2.0000      -0.531289       -14.4571
  49   2.0000      -0.531259       -14.4563
  50   2.0000      -0.530371       -14.4321
  51   2.0000      -0.513819       -13.9817
  52   2.0000      -0.513755       -13.9800
  53   2.0000      -0.500536       -13.6203
  54   2.0000      -0.490431       -13.3453
  55   2.0000      -0.490377       -13.3438
  56   2.0000      -0.481759       -13.1093
  57   2.0000      -0.471987       -12.8434
  58   2.0000      -0.471904       -12.8411
  59   2.0000      -0.470605       -12.8058
  60   2.0000      -0.459884       -12.5141
  61   2.0000      -0.459861       -12.5135
  62   2.0000      -0.448436       -12.2026
  63   2.0000      -0.441079       -12.0024
  64   2.0000      -0.441062       -12.0019
  65   2.0000      -0.432211       -11.7611
  66   2.0000      -0.419131       -11.4051
  67   2.0000      -0.418974       -11.4008
  68   2.0000      -0.417602       -11.3635
  69   2.0000      -0.399340       -10.8666
  70   2.0000      -0.399312       -10.8658
  71   2.0000      -0.398913       -10.8550
  72   2.0000      -0.371720       -10.1150
  73   2.0000      -0.371701       -10.1145
  74   2.0000      -0.330676        -8.9982
  75   2.0000      -0.306625        -8.3437
  76   2.0000      -0.306497        -8.3402
  77   2.0000      -0.299957        -8.1622
  78   2.0000      -0.296590        -8.0706
  79   2.0000      -0.296519        -8.0687
  80   2.0000      -0.260268        -7.0823
  81   0.0000      -0.000948        -0.0258
  82   0.0000      -0.000841        -0.0229
  83   0.0000       0.008337         0.2269
  84   0.0000       0.020230         0.5505
  85   0.0000       0.024790         0.6746

MULLIKEN ATOMIC CHARGES
-----------------------
   0 C :   -0.503441
   1 C :    0.055746
   2 C :   -0.143715
   3 C :   -0.141143
   4 C :   -0.168450
   5 C :   -0.151549
   6 C :   -0.074497
   7 P :    0.037356
   8 C :   -0.079011
   9 C :   -0.151708
  10 C :   -0.169951
  11 C :   -0.139408
  12 C :   -0.146603
  13 C :    0.061645
  14 C :   -0.502911
  15 C :   -0.078683
  16 C :   -0.152178
  17 C :   -0.168006
  18 C :   -0.140381
  19 C :   -0.145621
  20 C :    0.059971
  21 C :   -0.503470
  22 H :    0.182550
  23 H :    0.175362
  24 H :    0.140390
  25 H :    0.135739
  26 H :    0.143142
  27 H :    0.144759
  28 H :    0.194180
  29 H :    0.193017
  30 H :    0.144725
  31 H :    0.143608
  32 H :    0.134770
  33 H :    0.174650
  34 H :    0.140506
  35 H :    0.182653
  36 H :    0.193973
  37 H :    0.144885
  38 H :    0.143495
  39 H :    0.135160
  40 H :    0.175154
  41 H :    0.182007
  42 H :    0.141281
Sum of atomic charges:   -0.0000000

LOEWDIN ATOMIC CHARGES
----------------------
   0 C :   -0.274279
   1 C :   -0.168124
   2 C :   -0.121881
   3 C :   -0.141400
   4 C :   -0.149484
   5 C :   -0.139607
   6 C :   -0.247582
   7 P :    0.711338
   8 C :   -0.247756
   9 C :   -0.139895
  10 C :   -0.149571
  11 C :   -0.141442
  12 C :   -0.121769
  13 C :   -0.168047
  14 C :   -0.274192
  15 C :   -0.247735
  16 C :   -0.139632
  17 C :   -0.149520
  18 C :   -0.141302
  19 C :   -0.121780
  20 C :   -0.167968
  21 C :   -0.274408
  22 H :    0.138455
  23 H :    0.134295
  24 H :    0.129293
  25 H :    0.148801
  26 H :    0.147002
  27 H :    0.147176
  28 H :    0.160314
  29 H :    0.160367
  30 H :    0.147179
  31 H :    0.147002
  32 H :    0.148839
  33 H :    0.134117
  34 H :    0.129329
  35 H :    0.138563
  36 H :    0.160443
  37 H :    0.147204
  38 H :    0.147046
  39 H :    0.148809
  40 H :    0.134141
  41 H :    0.138277
  42 H :    0.129383

  Mayer bond orders larger than 0.100000
B(  0-C ,  1-C ) :   0.9323 B(  0-C , 22-H ) :   0.9474 B(  0-C , 23-H ) :   0.9768
B(  0-C , 24-H ) :   0.9719 B(  1-C ,  2-C ) :   1.4494 B(  1-C ,  6-C ) :   1.3170
B(  2-C ,  3-C ) :   1.4511 B(  2-C , 25-H ) :   0.9319 B(  3-C ,  4-C ) :   1.4397
B(  3-C , 26-H ) :   0.9511 B(  4-C ,  5-C ) :   1.4643 B(  4-C , 27-H ) :   0.9444
B(  5-C ,  6-C ) :   1.3563 B(  5-C , 28-H ) :   0.9308 B(  6-C ,  7-P ) :   0.9178
B(  7-P ,  8-C ) :   0.9213 B(  7-P , 15-C ) :   0.9184 B(  8-C ,  9-C ) :   1.3538
B(  8-C , 13-C ) :   1.3166 B(  9-C , 10-C ) :   1.4651 B(  9-C , 29-H ) :   0.9323
B( 10-C , 11-C ) :   1.4416 B( 10-C , 30-H ) :   0.9440 B( 11-C , 12-C ) :   1.4509
B( 11-C , 31-H ) :   0.9501 B( 12-C , 13-C ) :   1.4472 B( 12-C , 32-H ) :   0.9335
B( 13-C , 14-C ) :   0.9313 B( 14-C , 33-H ) :   0.9770 B( 14-C , 34-H ) :   0.9724
B( 14-C , 35-H ) :   0.9470 B( 15-C , 16-C ) :   1.3535 B( 15-C , 20-C ) :   1.3205
B( 16-C , 17-C ) :   1.4648 B( 16-C , 36-H ) :   0.9319 B( 17-C , 18-C ) :   1.4412
B( 17-C , 37-H ) :   0.9441 B( 18-C , 19-C ) :   1.4517 B( 18-C , 38-H ) :   0.9502
B( 19-C , 20-C ) :   1.4468 B( 19-C , 39-H ) :   0.9326 B( 20-C , 21-C ) :   0.9301
B( 21-C , 40-H ) :   0.9768 B( 21-C , 41-H ) :   0.9476 B( 21-C , 42-H ) :   0.9720

Dispersion correction           -0.003365943
FINAL SINGLE POINT ENERGY     -1154.175844598796

DIPOLE MOMENT
-------------

Method             : SCF
Type of density    : Electron Density
Multiplicity       :   1
Irrep              :   0
Energy             : -1154.1724786553174908 Eh
Relativity type    :
Basis              : AO
                                X                 Y                 Z
Electronic contribution:      0.424742437       0.023576457       3.047618702
Nuclear contribution   :     -0.409317339      -0.020356268      -2.876230201
                        -----------------------------------------
Total Dipole Moment    :      0.015425098       0.003220189       0.171388502
                        -----------------------------------------
Magnitude (a.u.)       :      0.172111364
Magnitude (Debye)      :      0.437472322

Rotational constants in cm-1:             0.009519             0.009502             0.005929
Rotational constants in MHz :           285.360231           284.874082           177.752827

                             ****ORCA TERMINATED NORMALLY****
TOTAL RUN TIME: 0 days 0 hours 2 minutes 49 seconds 789 msec
