                         Program Version 6.0.0  -   RELEASE   -
|  1> ! RI BP86 def2-SVP D3BJ TIGHTSCF Opt
|  2> %pal
|  3> nprocs 6
|  4> end
|  5>
|  6> * xyz 0 1
|  7> C      1.272748    3.471914   -1.046561
|  8> C      0.346384    2.708074   -1.643888
|  9> C     -0.708546    1.933676   -0.910283
| 10> P     -0.293127    0.197684   -1.313042
| 11> C      1.176479   -0.094172   -0.262889
| 12> C      2.386247   -0.445474   -0.880318
| 13> C      3.536907   -0.673236   -0.121106
| 14> C      3.493040   -0.552939    1.265661
| 15> C      2.299788   -0.204702    1.893772
| 16> C      1.149243    0.024284    1.134685
| 17> C     -1.567374   -0.782322   -0.438470
| 18> C     -2.831776   -0.269341   -0.114847
| 19> C     -3.785539   -1.058682    0.537553
| 20> C     -3.496192   -2.379660    0.866128
| 21> C     -2.256221   -2.915571    0.535175
| 22> C     -1.304947   -2.126136   -0.117226
| 23> H      1.337221    3.550108    0.034406
| 24> H      2.001725    4.021816   -1.633530
| 25> H      0.326938    2.677706   -2.732878
| 26> H     -1.683847    2.222191   -1.313994
| 27> H     -0.709543    2.143160    0.163724
| 28> H      2.444614   -0.541902   -1.962477
| 29> H      4.466359   -0.943421   -0.615132
| 30> H      4.387742   -0.730772    1.856187
| 31> H      2.261271   -0.112406    2.975903
| 32> H      0.229444    0.289659    1.650678
| 33> H     -3.110197    0.748965   -0.368090
| 34> H     -4.758378   -0.639933    0.782312
| 35> H     -4.238164   -2.992339    1.370878
| 36> H     -2.025310   -3.949135    0.779084
| 37> H     -0.346990   -2.577093   -0.371415
| 38> **                         ****END OF INPUT****
 Total Charge           Charge          ....    0
 Multiplicity           Mult            ....    1
 Number of Electrons    NEL             ....  120
Dispersion correction           -0.068641529
FINAL SINGLE POINT ENERGY      -921.521510495792
Dispersion correction             ... done (  0.1 sec)
Dispersion correction           -0.068620518
FINAL SINGLE POINT ENERGY      -921.527990350871
Dispersion correction             ... done (  0.1 sec)
Dispersion correction           -0.068976194
FINAL SINGLE POINT ENERGY      -921.529607814280
Dispersion correction             ... done (  0.1 sec)
FINAL SINGLE POINT ENERGY      -921.530155601312
FINAL SINGLE POINT ENERGY      -921.530334641654
FINAL SINGLE POINT ENERGY      -921.530446249614
FINAL SINGLE POINT ENERGY      -921.530534335095
FINAL SINGLE POINT ENERGY      -921.530578119919
FINAL SINGLE POINT ENERGY      -921.530593365564
FINAL SINGLE POINT ENERGY      -921.530599940144
FINAL SINGLE POINT ENERGY      -921.530604312997
Dispersion correction             ... done (  0.1 sec)
Dispersion correction           -0.069615672
FINAL SINGLE POINT ENERGY      -921.530605568693
Dispersion correction             ... done (  0.1 sec)
Dispersion correction           -0.069580998
FINAL SINGLE POINT ENERGY      -921.530606737715
Dispersion correction             ... done (  0.1 sec)
                    ***********************HURRAY********************

CARTESIAN COORDINATES (ANGSTROEM)
---------------------------------
  C      1.439221    3.195530   -1.150207
  C      0.411096    2.630268   -1.810412
  C     -0.649385    1.787797   -1.169232
  P     -0.269156   -0.051345   -1.447527
  C      1.170926   -0.189671   -0.287857
  C      2.464386   -0.073826   -0.840255
  C      3.599274   -0.098337   -0.013043
  C      3.453727   -0.250618    1.375414
  C      2.169019   -0.375049    1.933576
  C      1.034025   -0.342495    1.108725
  C     -1.590927   -0.860936   -0.438366
  C     -2.682503   -0.184748    0.145679
  C     -3.664101   -0.893838    0.860794
  C     -3.565277   -2.285486    1.010555
  C     -2.481004   -2.970282    0.432360
  C     -1.510424   -2.266232   -0.292981
  H      1.546563    3.089957   -0.058014
  H      2.211296    3.776180   -1.678216
  H      0.354128    2.734273   -2.909168
  H     -1.641400    1.974896   -1.632940
  H     -0.721350    1.984216   -0.079186
  H      2.577832    0.038479   -1.929893
  H      4.602446   -0.003372   -0.456707
  H      4.342483   -0.276847    2.024660
  H      2.050172   -0.497105    3.021572
  H      0.030606   -0.438610    1.551559
  H     -2.776696    0.906926    0.053357
  H     -4.509411   -0.349050    1.309322
  H     -4.332313   -2.838061    1.574354
  H     -2.395368   -4.062437    0.542417
  H     -0.667886   -2.810174   -0.750340

 Multiplicity           Mult            ....    1
 Number of Electrons    NEL             ....  120
 Basis Dimension        Dim             ....  303

ORBITAL ENERGIES
----------------

  NO   OCC          E(Eh)            E(eV)
   0   2.0000     -76.344538     -2077.4405
   1   2.0000      -9.927696      -270.1463
   2   2.0000      -9.926900      -270.1247
   3   2.0000      -9.925350      -270.0825
   4   2.0000      -9.924226      -270.0519
   5   2.0000      -9.924189      -270.0509
   6   2.0000      -9.923654      -270.0363
   7   2.0000      -9.923412      -270.0298
   8   2.0000      -9.923314      -270.0271
   9   2.0000      -9.922643      -270.0088
  10   2.0000      -9.922090      -269.9938
  11   2.0000      -9.921823      -269.9865
  12   2.0000      -9.921241      -269.9707
  13   2.0000      -9.920992      -269.9639
  14   2.0000      -9.920926      -269.9621
  15   2.0000      -9.910013      -269.6652
  16   2.0000      -6.313355      -171.7951
  17   2.0000      -4.534944      -123.4021
  18   2.0000      -4.534653      -123.3942
  19   2.0000      -4.531120      -123.2980
  20   2.0000      -0.776270       -21.1234
  21   2.0000      -0.769740       -20.9457
  22   2.0000      -0.718273       -19.5452
  23   2.0000      -0.685537       -18.6544
  24   2.0000      -0.672006       -18.2862
  25   2.0000      -0.669260       -18.2115
  26   2.0000      -0.665714       -18.1150
  27   2.0000      -0.623690       -16.9715
  28   2.0000      -0.567352       -15.4384
  29   2.0000      -0.543118       -14.7790
  30   2.0000      -0.542123       -14.7519
  31   2.0000      -0.533803       -14.5255
  32   2.0000      -0.505255       -13.7487
  33   2.0000      -0.486773       -13.2458
  34   2.0000      -0.465693       -12.6721
  35   2.0000      -0.447942       -12.1891
  36   2.0000      -0.422880       -11.5072
  37   2.0000      -0.407813       -11.0971
  38   2.0000      -0.407473       -11.0879
  39   2.0000      -0.401295       -10.9198
  40   2.0000      -0.394183       -10.7263
  41   2.0000      -0.385078       -10.4785
  42   2.0000      -0.375568       -10.2197
  43   2.0000      -0.374361       -10.1869
  44   2.0000      -0.367223        -9.9926
  45   2.0000      -0.354065        -9.6346
  46   2.0000      -0.339012        -9.2250
  47   2.0000      -0.331770        -9.0279
  48   2.0000      -0.329832        -8.9752
  49   2.0000      -0.313960        -8.5433
  50   2.0000      -0.306864        -8.3502
  51   2.0000      -0.303696        -8.2640
  52   2.0000      -0.300903        -8.1880
  53   2.0000      -0.285092        -7.7578
  54   2.0000      -0.246107        -6.6969
  55   2.0000      -0.237778        -6.4703
  56   2.0000      -0.234197        -6.3728
  57   2.0000      -0.232993        -6.3401
  58   2.0000      -0.223223        -6.0742
  59   2.0000      -0.196781        -5.3547
  60   0.0000      -0.057411        -1.5622
  61   0.0000      -0.050633        -1.3778
  62   0.0000      -0.050021        -1.3611
  63   0.0000      -0.039641        -1.0787
  64   0.0000      -0.031143        -0.8475

MULLIKEN ATOMIC CHARGES
-----------------------
   0 C :   -0.042330
   1 C :   -0.079603
   2 C :   -0.124576
   3 P :    0.221243
   4 C :   -0.139929
   5 C :    0.029346
   6 C :   -0.006329
   7 C :    0.003523
   8 C :    0.000315
   9 C :    0.010865
  10 C :   -0.138307
  11 C :   -0.020110
  12 C :    0.006089
  13 C :    0.001352
  14 C :   -0.000356
  15 C :    0.009692
  16 H :    0.038914
  17 H :    0.037888
  18 H :    0.028328
  19 H :    0.071118
  20 H :    0.055677
  21 H :   -0.000898
  22 H :    0.003251
  23 H :    0.003996
  24 H :    0.001923
  25 H :    0.013383
  26 H :   -0.002526
  27 H :    0.001952
  28 H :    0.004785
  29 H :    0.005601
  30 H :    0.005721
Sum of atomic charges:   -0.0000000

LOEWDIN ATOMIC CHARGES
----------------------
   0 C :   -0.064536
   1 C :   -0.050981
   2 C :   -0.175538
   3 P :    0.487263
   4 C :   -0.170710
   5 C :   -0.029952
   6 C :   -0.032398
   7 C :   -0.029527
   8 C :   -0.032822
   9 C :   -0.033697
  10 C :   -0.175287
  11 C :   -0.046525
  12 C :   -0.030033
  13 C :   -0.032001
  14 C :   -0.029378
  15 C :   -0.032055
  16 H :    0.029307
  17 H :    0.029344
  18 H :    0.030794
  19 H :    0.036594
  20 H :    0.030442
  21 H :    0.028862
  22 H :    0.033037
  23 H :    0.032537
  24 H :    0.032645
  25 H :    0.033879
  26 H :    0.028649
  27 H :    0.032973
  28 H :    0.032992
  29 H :    0.034079
  30 H :    0.032044

  Mayer bond orders larger than 0.100000
B(  0-C ,  1-C ) :   1.9902 B(  0-C , 16-H ) :   0.9446 B(  0-C , 17-H ) :   0.9474
B(  1-C ,  2-C ) :   1.0487 B(  1-C , 18-H ) :   0.9514 B(  2-C ,  3-P ) :   0.9501
B(  2-C , 19-H ) :   0.9169 B(  2-C , 20-H ) :   0.9158 B(  3-P ,  4-C ) :   0.9370
B(  3-P , 10-C ) :   0.9185 B(  4-C ,  5-C ) :   1.3775 B(  4-C ,  9-C ) :   1.3788
B(  5-C ,  6-C ) :   1.3895 B(  5-C , 21-H ) :   0.9693 B(  6-C ,  7-C ) :   1.3847
B(  6-C , 22-H ) :   0.9763 B(  7-C ,  8-C ) :   1.3707 B(  7-C , 23-H ) :   0.9759
B(  8-C ,  9-C ) :   1.3953 B(  8-C , 24-H ) :   0.9741 B(  9-C , 25-H ) :   0.9653
B( 10-C , 11-C ) :   1.3807 B( 10-C , 15-C ) :   1.3594 B( 11-C , 12-C ) :   1.3795
B( 11-C , 26-H ) :   0.9669 B( 12-C , 13-C ) :   1.3902 B( 12-C , 27-H ) :   0.9729
B( 13-C , 14-C ) :   1.3666 B( 13-C , 28-H ) :   0.9758 B( 14-C , 15-C ) :   1.4188
B( 14-C , 29-H ) :   0.9757 B( 15-C , 30-H ) :   0.9705

Dispersion correction           -0.069576906
FINAL SINGLE POINT ENERGY      -921.530607023247

DIPOLE MOMENT
-------------

Method             : SCF
Type of density    : Electron Density
Multiplicity       :   1
Irrep              :   0
Energy             :  -921.4610301170998810 Eh
Relativity type    :
Basis              : AO
                                X                 Y                 Z
Electronic contribution:     -1.635069867      -5.115801703      -3.368771282
Nuclear contribution   :      1.597515489       5.201863187       3.812486470
                        -----------------------------------------
Total Dipole Moment    :     -0.037554378       0.086061484       0.443715188
                        -----------------------------------------
Magnitude (a.u.)       :      0.453541706
Magnitude (Debye)      :      1.152811401

Rotational constants in cm-1:             0.024512             0.011606             0.009126
Rotational constants in MHz :           734.847565           347.942571           273.603540

                             ****ORCA TERMINATED NORMALLY****
TOTAL RUN TIME: 0 days 0 hours 2 minutes 41 seconds 899 msec
