                         Program Version 6.0.0  -   RELEASE   -
|  1> ! RI BP86 def2-SVP D3BJ TIGHTSCF Opt
|  2> %pal
|  3> nprocs 6
|  4> end
|  5>
|  6> * xyz 0 1
|  7> C     -0.149955   -2.656516   -0.337071
|  8> P     -0.102260   -1.392385    0.992856
|  9> C      1.395801   -0.420100    0.604078
| 10> C      1.471385    0.935575    0.966587
| 11> C      2.614397    1.694367    0.698376
| 12> C      3.710958    1.106049    0.076497
| 13> C      3.666833   -0.241540   -0.268321
| 14> C      2.521830   -0.999205    0.000068
| 15> C     -1.446658   -0.284485    0.449519
| 16> C     -1.458283    0.340257   -0.806277
| 17> C     -2.513730    1.176782   -1.179031
| 18> C     -3.572797    1.397872   -0.302131
| 19> C     -3.576951    0.784024    0.947882
| 20> C     -2.521041   -0.051802    1.321005
| 21> H      0.013237   -2.231677   -1.331934
| 22> H     -1.121570   -3.160917   -0.341933
| 23> H      0.610563   -3.424320   -0.165693
| 24> H      0.634887    1.421641    1.465714
| 25> H      2.645366    2.743140    0.981568
| 26> H      4.601253    1.693811   -0.129814
| 27> H      4.526720   -0.709286   -0.740798
| 28> H      2.535962   -2.052631   -0.265303
| 29> H     -0.640000    0.191026   -1.507244
| 30> H     -2.505276    1.656728   -2.154109
| 31> H     -4.393245    2.048859   -0.592043
| 32> H     -4.401318    0.954522    1.635278
| 33> H     -2.546106   -0.519787    2.303137
| 34> **                         ****END OF INPUT****
 Total Charge           Charge          ....    0
 Multiplicity           Mult            ....    1
 Number of Electrons    NEL             ....  106
Dispersion correction           -0.058288233
FINAL SINGLE POINT ENERGY      -844.182118635009
Dispersion correction             ... done (  0.1 sec)
Dispersion correction           -0.058305744
FINAL SINGLE POINT ENERGY      -844.186225308554
Dispersion correction             ... done (  0.1 sec)
Dispersion correction           -0.058304961
FINAL SINGLE POINT ENERGY      -844.186769497663
Dispersion correction             ... done (  0.1 sec)
FINAL SINGLE POINT ENERGY      -844.186972818039
FINAL SINGLE POINT ENERGY      -844.187060698248
FINAL SINGLE POINT ENERGY      -844.187123545380
FINAL SINGLE POINT ENERGY      -844.187170339569
FINAL SINGLE POINT ENERGY      -844.187198570590
Dispersion correction             ... done (  0.1 sec)
Dispersion correction           -0.058244152
FINAL SINGLE POINT ENERGY      -844.187207353063
Dispersion correction             ... done (  0.1 sec)
Dispersion correction           -0.058230320
FINAL SINGLE POINT ENERGY      -844.187209431876
Dispersion correction             ... done (  0.1 sec)
                    ***********************HURRAY********************

CARTESIAN COORDINATES (ANGSTROEM)
---------------------------------
  C     -0.176464   -2.707974    0.038952
  P     -0.084315   -1.280596    1.239090
  C      1.409876   -0.370538    0.642636
  C      1.658948    0.903314    1.206147
  C      2.788750    1.644347    0.835076
  C      3.705473    1.117506   -0.093271
  C      3.477552   -0.151400   -0.647341
  C      2.336486   -0.889715   -0.285496
  C     -1.424819   -0.210803    0.522069
  C     -1.255257    0.564142   -0.645923
  C     -2.318206    1.328264   -1.151390
  C     -3.564279    1.325847   -0.499266
  C     -3.742200    0.559078    0.664012
  C     -2.675507   -0.199236    1.175094
  H     -0.104799   -2.386200   -1.020257
  H     -1.152293   -3.209624    0.192144
  H      0.623665   -3.442392    0.261725
  H      0.948601    1.319867    1.938953
  H      2.960106    2.638229    1.276951
  H      4.596860    1.695881   -0.380652
  H      4.190241   -0.572440   -1.373620
  H      2.173304   -1.877907   -0.740093
  H     -0.279636    0.572640   -1.156521
  H     -2.174066    1.931339   -2.061504
  H     -4.396082    1.927946   -0.896389
  H     -4.713530    0.558884    1.182632
  H     -2.808404   -0.788457    2.097103

 Multiplicity           Mult            ....    1
 Number of Electrons    NEL             ....  106
 Basis Dimension        Dim             ....  265

ORBITAL ENERGIES
----------------

  NO   OCC          E(Eh)            E(eV)
   0   2.0000     -76.342349     -2077.3809
   1   2.0000      -9.924956      -270.0718
   2   2.0000      -9.924334      -270.0549
   3   2.0000      -9.923209      -270.0243
   4   2.0000      -9.923178      -270.0234
   5   2.0000      -9.923137      -270.0223
   6   2.0000      -9.922482      -270.0045
   7   2.0000      -9.922268      -269.9987
   8   2.0000      -9.922229      -269.9976
   9   2.0000      -9.922022      -269.9920
  10   2.0000      -9.921818      -269.9864
  11   2.0000      -9.921616      -269.9809
  12   2.0000      -9.921193      -269.9694
  13   2.0000      -9.918580      -269.8983
  14   2.0000      -6.311455      -171.7434
  15   2.0000      -4.533005      -123.3493
  16   2.0000      -4.532755      -123.3425
  17   2.0000      -4.529228      -123.2466
  18   2.0000      -0.775021       -21.0894
  19   2.0000      -0.769428       -20.9372
  20   2.0000      -0.694735       -18.9047
  21   2.0000      -0.670396       -18.2424
  22   2.0000      -0.670156       -18.2359
  23   2.0000      -0.665383       -18.1060
  24   2.0000      -0.639223       -17.3941
  25   2.0000      -0.563653       -15.3378
  26   2.0000      -0.542733       -14.7685
  27   2.0000      -0.540064       -14.6959
  28   2.0000      -0.533437       -14.5156
  29   2.0000      -0.497421       -13.5355
  30   2.0000      -0.465178       -12.6581
  31   2.0000      -0.446514       -12.1503
  32   2.0000      -0.408242       -11.1088
  33   2.0000      -0.406704       -11.0670
  34   2.0000      -0.401020       -10.9123
  35   2.0000      -0.394692       -10.7401
  36   2.0000      -0.381606       -10.3840
  37   2.0000      -0.378182       -10.2909
  38   2.0000      -0.374574       -10.1927
  39   2.0000      -0.368576       -10.0295
  40   2.0000      -0.350853        -9.5472
  41   2.0000      -0.340660        -9.2698
  42   2.0000      -0.330765        -9.0006
  43   2.0000      -0.329449        -8.9648
  44   2.0000      -0.307216        -8.3598
  45   2.0000      -0.304892        -8.2965
  46   2.0000      -0.294353        -8.0098
  47   2.0000      -0.284367        -7.7380
  48   2.0000      -0.243866        -6.6359
  49   2.0000      -0.236084        -6.4242
  50   2.0000      -0.234204        -6.3730
  51   2.0000      -0.230722        -6.2783
  52   2.0000      -0.194878        -5.3029
  53   0.0000      -0.056854        -1.5471
  54   0.0000      -0.049964        -1.3596
  55   0.0000      -0.048942        -1.3318
  56   0.0000      -0.039476        -1.0742
  57   0.0000       0.025736         0.7003

MULLIKEN ATOMIC CHARGES
-----------------------
   0 C :   -0.185543
   1 P :    0.205609
   2 C :   -0.131571
   3 C :    0.010011
   4 C :   -0.001376
   5 C :    0.000417
   6 C :    0.005148
   7 C :   -0.022755
   8 C :   -0.138832
   9 C :    0.014453
  10 C :    0.001532
  11 C :    0.004037
  12 C :   -0.002032
  13 C :    0.006277
  14 H :    0.062338
  15 H :    0.067605
  16 H :    0.073843
  17 H :    0.004400
  18 H :    0.004486
  19 H :    0.003679
  20 H :    0.000952
  21 H :   -0.008079
  22 H :    0.013066
  23 H :    0.003073
  24 H :    0.005012
  25 H :    0.004468
  26 H :   -0.000218
Sum of atomic charges:   -0.0000000

LOEWDIN ATOMIC CHARGES
----------------------
   0 C :   -0.221753
   1 P :    0.478478
   2 C :   -0.175018
   3 C :   -0.032324
   4 C :   -0.029941
   5 C :   -0.033330
   6 C :   -0.030664
   7 C :   -0.046967
   8 C :   -0.171118
   9 C :   -0.030752
  10 C :   -0.030823
  11 C :   -0.028490
  12 C :   -0.032112
  13 C :   -0.038227
  14 H :    0.028498
  15 H :    0.039567
  16 H :    0.034184
  17 H :    0.031692
  18 H :    0.033568
  19 H :    0.032468
  20 H :    0.032446
  21 H :    0.028314
  22 H :    0.034130
  23 H :    0.033060
  24 H :    0.032873
  25 H :    0.033242
  26 H :    0.028999

  Mayer bond orders larger than 0.100000
B(  0-C ,  1-P ) :   1.0100 B(  0-C , 14-H ) :   0.9420 B(  0-C , 15-H ) :   0.9566
B(  0-C , 16-H ) :   0.9538 B(  1-P ,  2-C ) :   0.9264 B(  1-P ,  8-C ) :   0.9311
B(  2-C ,  3-C ) :   1.3577 B(  2-C ,  7-C ) :   1.3840 B(  3-C ,  4-C ) :   1.4214
B(  3-C , 17-H ) :   0.9707 B(  4-C ,  5-C ) :   1.3655 B(  4-C , 18-H ) :   0.9757
B(  5-C ,  6-C ) :   1.3909 B(  5-C , 19-H ) :   0.9758 B(  6-C ,  7-C ) :   1.3807
B(  6-C , 20-H ) :   0.9731 B(  7-C , 21-H ) :   0.9684 B(  8-C ,  9-C ) :   1.3772
B(  8-C , 13-C ) :   1.3800 B(  9-C , 10-C ) :   1.3968 B(  9-C , 22-H ) :   0.9662
B( 10-C , 11-C ) :   1.3720 B( 10-C , 23-H ) :   0.9746 B( 11-C , 12-C ) :   1.3870
B( 11-C , 24-H ) :   0.9757 B( 12-C , 13-C ) :   1.3868 B( 12-C , 25-H ) :   0.9759
B( 13-C , 26-H ) :   0.9732

Dispersion correction           -0.058219951
FINAL SINGLE POINT ENERGY      -844.187210092096

DIPOLE MOMENT
-------------

Method             : SCF
Type of density    : Electron Density
Multiplicity       :   1
Irrep              :   0
Energy             :  -844.1289901413896359 Eh
Relativity type    :
Basis              : AO
                                X                 Y                 Z
Electronic contribution:     -0.024057903       0.112626405       4.589734172
Nuclear contribution   :     -0.046530449      -0.030092697      -5.066790341
                        -----------------------------------------
Total Dipole Moment    :     -0.070588352       0.082533708      -0.477056169
                        -----------------------------------------
Magnitude (a.u.)       :      0.489261808
Magnitude (Debye)      :      1.243604686

Rotational constants in cm-1:             0.037650             0.013200             0.011433
Rotational constants in MHz :          1128.733535           395.721823           342.757387

                             ****ORCA TERMINATED NORMALLY****
TOTAL RUN TIME: 0 days 0 hours 1 minutes 50 seconds 591 msec
