                         Program Version 6.0.0  -   RELEASE   -
|  1> ! RI BP86 def2-SVP D3BJ TIGHTSCF Opt
|  2> %pal
|  3> nprocs 6
|  4> end
|  5>
|  6> * xyz 0 1
|  7> C      4.477080   -0.787698   -0.271064
|  8> C      4.048491   -1.027322    1.172931
|  9> C      2.685640   -0.406132    1.469989
| 10> C      1.609416   -0.884209    0.481282
| 11> C      2.056485   -0.615086   -0.956981
| 12> C      3.410526   -1.253193   -1.257526
| 13> P     -0.045744   -0.260153    0.906464
| 14> O     -0.343969   -0.542754    2.356393
| 15> C     -0.053712    1.524117    0.549512
| 16> C     -0.446653    1.916633   -0.880846
| 17> C     -0.344197    3.422819   -1.107518
| 18> C     -1.187492    4.194474   -0.098587
| 19> C     -0.823447    3.820073    1.333348
| 20> C     -0.898472    2.312914    1.564609
| 21> C     -1.251235   -1.093904   -0.172932
| 22> C     -1.087604   -2.623573   -0.163557
| 23> C     -2.126870   -3.330982   -1.029092
| 24> C     -3.547200   -2.944092   -0.639441
| 25> C     -3.730127   -1.432295   -0.657666
| 26> C     -2.695690   -0.734846    0.219227
| 27> H      4.669884    0.281812   -0.420774
| 28> H      5.418243   -1.312700   -0.469261
| 29> H      4.799344   -0.611732    1.854356
| 30> H      4.005773   -2.106425    1.365650
| 31> H      2.768759    0.685873    1.434361
| 32> H      2.388298   -0.660043    2.493751
| 33> H      1.541909   -1.971570    0.610514
| 34> H      1.310405   -0.994242   -1.662743
| 35> H      2.134247    0.464308   -1.124790
| 36> H      3.718468   -1.000356   -2.278349
| 37> H      3.319210   -2.345320   -1.211782
| 38> H      0.982645    1.850416    0.698859
| 39> H     -1.474433    1.603447   -1.090076
| 40> H      0.182798    1.399757   -1.609794
| 41> H     -0.674119    3.665434   -2.123982
| 42> H      0.704144    3.735498   -1.027978
| 43> H     -2.249768    3.982886   -0.272302
| 44> H     -1.047586    5.271179   -0.246244
| 45> H      0.192603    4.170373    1.553539
| 46> H     -1.494713    4.333447    2.031011
| 47> H     -0.554322    2.093169    2.581770
| 48> H     -1.942539    1.984643    1.514308
| 49> H     -1.071783   -0.750125   -1.197914
| 50> H     -0.093670   -2.897271   -0.530558
| 51> H     -1.151464   -2.991795    0.867795
| 52> H     -2.002985   -4.416143   -0.939473
| 53> H     -1.955284   -3.076814   -2.082426
| 54> H     -4.260715   -3.412193   -1.326754
| 55> H     -3.769327   -3.328269    0.363716
| 56> H     -4.738194   -1.179577   -0.310101
| 57> H     -3.644835   -1.063403   -1.687162
| 58> H     -2.849744    0.345524    0.155354
| 59> H     -2.866479   -1.004580    1.268933
| 60> **                         ****END OF INPUT****
 Total Charge           Charge          ....    0
 Multiplicity           Mult            ....    1
 Number of Electrons    NEL             ....  164
Dispersion correction           -0.109912057
FINAL SINGLE POINT ENERGY     -1121.871336492575
Dispersion correction             ... done (  0.1 sec)
Dispersion correction           -0.109200261
FINAL SINGLE POINT ENERGY     -1121.880629141566
Dispersion correction             ... done (  0.1 sec)
Dispersion correction           -0.108874790
FINAL SINGLE POINT ENERGY     -1121.881967459557
Dispersion correction             ... done (  0.1 sec)
FINAL SINGLE POINT ENERGY     -1121.882333541284
FINAL SINGLE POINT ENERGY     -1121.882316568511
FINAL SINGLE POINT ENERGY     -1121.882419794674
Dispersion correction             ... done (  0.1 sec)
Dispersion correction           -0.108834270
FINAL SINGLE POINT ENERGY     -1121.882424773933
Dispersion correction             ... done (  0.1 sec)
Dispersion correction           -0.108824691
FINAL SINGLE POINT ENERGY     -1121.882428898499
Dispersion correction             ... done (  0.1 sec)
                    ***********************HURRAY********************

CARTESIAN COORDINATES (ANGSTROEM)
---------------------------------
  C      4.508431   -0.754384   -0.230397
  C      4.037072   -1.036560    1.205068
  C      2.656398   -0.420053    1.474653
  C      1.625972   -0.902988    0.434977
  C      2.091461   -0.610793   -1.001538
  C      3.475857   -1.227999   -1.265510
  P     -0.062652   -0.285974    0.891731
  O     -0.379803   -0.578689    2.355422
  C     -0.064675    1.543796    0.514965
  C     -0.445429    1.950413   -0.922104
  C     -0.325735    3.472812   -1.108903
  C     -1.159787    4.237142   -0.069102
  C     -0.796855    3.815578    1.363856
  C     -0.922872    2.297322    1.551198
  C     -1.268072   -1.111072   -0.258231
  C     -1.083132   -2.642559   -0.206364
  C     -2.169047   -3.381953   -1.003161
  C     -3.578532   -2.984522   -0.543678
  C     -3.773118   -1.464759   -0.630701
  C     -2.698516   -0.714804    0.169849
  H      4.666452    0.341704   -0.352345
  H      5.492296   -1.233568   -0.419497
  H      4.776824   -0.654155    1.939790
  H      3.979028   -2.137347    1.362331
  H      2.738707    0.690142    1.425072
  H      2.288456   -0.663926    2.491304
  H      1.530260   -2.006171    0.558435
  H      1.353074   -0.986132   -1.741615
  H      2.156659    0.490312   -1.149184
  H      3.814477   -0.981737   -2.294332
  H      3.391626   -2.337375   -1.219786
  H      0.996323    1.844765    0.683338
  H     -1.495465    1.643684   -1.121717
  H      0.182628    1.423552   -1.669359
  H     -0.632428    3.755017   -2.138563
  H      0.744241    3.765713   -1.009309
  H     -2.239332    4.027392   -0.246302
  H     -1.029807    5.332418   -0.199584
  H      0.250720    4.124751    1.582946
  H     -1.438642    4.346137    2.098762
  H     -0.634903    1.977063    2.571710
  H     -1.987876    1.999059    1.429701
  H     -1.076356   -0.752835   -1.294583
  H     -0.080865   -2.923993   -0.591410
  H     -1.116163   -2.958380    0.860074
  H     -2.022035   -4.479037   -0.911095
  H     -2.055717   -3.140279   -2.084720
  H     -4.347474   -3.512298   -1.146694
  H     -3.724357   -3.310886    0.510721
  H     -4.782308   -1.178328   -0.266115
  H     -3.723818   -1.149871   -1.698129
  H     -2.841477    0.380708    0.063651
  H     -2.799721   -0.936057    1.254475

 Multiplicity           Mult            ....    1
 Number of Electrons    NEL             ....  164
 Basis Dimension        Dim             ....  449

ORBITAL ENERGIES
----------------

  NO   OCC          E(Eh)            E(eV)
   0   2.0000     -76.395624     -2078.8306
   1   2.0000     -18.704243      -508.9683
   2   2.0000      -9.923320      -270.0273
   3   2.0000      -9.921272      -269.9715
   4   2.0000      -9.921079      -269.9663
   5   2.0000      -9.920970      -269.9633
   6   2.0000      -9.920723      -269.9566
   7   2.0000      -9.917119      -269.8585
   8   2.0000      -9.916081      -269.8303
   9   2.0000      -9.915548      -269.8158
  10   2.0000      -9.913927      -269.7717
  11   2.0000      -9.913127      -269.7499
  12   2.0000      -9.912962      -269.7454
  13   2.0000      -9.912945      -269.7449
  14   2.0000      -9.912706      -269.7385
  15   2.0000      -9.911853      -269.7152
  16   2.0000      -9.911688      -269.7107
  17   2.0000      -9.910081      -269.6670
  18   2.0000      -9.910056      -269.6663
  19   2.0000      -9.908270      -269.6177
  20   2.0000      -6.354507      -172.9149
  21   2.0000      -4.575675      -124.5105
  22   2.0000      -4.575587      -124.5080
  23   2.0000      -4.575548      -124.5070
  24   2.0000      -0.836432       -22.7605
  25   2.0000      -0.759233       -20.6598
  26   2.0000      -0.754201       -20.5229
  27   2.0000      -0.752271       -20.4703
  28   2.0000      -0.686893       -18.6913
  29   2.0000      -0.670430       -18.2433
  30   2.0000      -0.669867       -18.2280
  31   2.0000      -0.667095       -18.1526
  32   2.0000      -0.666650       -18.1405
  33   2.0000      -0.663950       -18.0670
  34   2.0000      -0.575071       -15.6485
  35   2.0000      -0.551007       -14.9937
  36   2.0000      -0.548846       -14.9349
  37   2.0000      -0.544135       -14.8067
  38   2.0000      -0.538937       -14.6652
  39   2.0000      -0.537964       -14.6387
  40   2.0000      -0.501101       -13.6356
  41   2.0000      -0.497931       -13.5494
  42   2.0000      -0.493380       -13.4256
  43   2.0000      -0.471093       -12.8191
  44   2.0000      -0.434705       -11.8289
  45   2.0000      -0.432941       -11.7809
  46   2.0000      -0.421701       -11.4751
  47   2.0000      -0.401587       -10.9277
  48   2.0000      -0.399629       -10.8745
  49   2.0000      -0.396918       -10.8007
  50   2.0000      -0.395486       -10.7617
  51   2.0000      -0.393407       -10.7051
  52   2.0000      -0.389045       -10.5865
  53   2.0000      -0.387989       -10.5577
  54   2.0000      -0.384606       -10.4657
  55   2.0000      -0.366434        -9.9712
  56   2.0000      -0.354339        -9.6421
  57   2.0000      -0.350860        -9.5474
  58   2.0000      -0.344394        -9.3714
  59   2.0000      -0.342442        -9.3183
  60   2.0000      -0.339220        -9.2307
  61   2.0000      -0.338856        -9.2207
  62   2.0000      -0.330219        -8.9857
  63   2.0000      -0.326032        -8.8718
  64   2.0000      -0.317028        -8.6268
  65   2.0000      -0.309087        -8.4107
  66   2.0000      -0.308466        -8.3938
  67   2.0000      -0.304739        -8.2924
  68   2.0000      -0.301913        -8.2155
  69   2.0000      -0.299263        -8.1434
  70   2.0000      -0.295037        -8.0284
  71   2.0000      -0.284822        -7.7504
  72   2.0000      -0.280968        -7.6455
  73   2.0000      -0.279034        -7.5929
  74   2.0000      -0.275584        -7.4990
  75   2.0000      -0.269118        -7.3231
  76   2.0000      -0.268333        -7.3017
  77   2.0000      -0.264057        -7.1853
  78   2.0000      -0.260022        -7.0756
  79   2.0000      -0.256818        -6.9884
  80   2.0000      -0.201393        -5.4802
  81   2.0000      -0.200413        -5.4535
  82   0.0000       0.014011         0.3812
  83   0.0000       0.023133         0.6295
  84   0.0000       0.030637         0.8337
  85   0.0000       0.036733         0.9996
  86   0.0000       0.044156         1.2016

MULLIKEN ATOMIC CHARGES
-----------------------
   0 C :   -0.033570
   1 C :    0.006316
   2 C :    0.015706
   3 C :   -0.249340
   4 C :    0.008612
   5 C :   -0.000133
   6 P :    0.553075
   7 O :   -0.476809
   8 C :   -0.263579
   9 C :    0.017442
  10 C :   -0.001055
  11 C :   -0.029908
  12 C :    0.001165
  13 C :    0.025940
  14 C :   -0.230091
  15 C :   -0.001756
  16 C :    0.003363
  17 C :   -0.024295
  18 C :    0.010621
  19 C :   -0.000764
  20 H :    0.009779
  21 H :    0.020970
  22 H :    0.021182
  23 H :    0.011050
  24 H :    0.012157
  25 H :    0.041684
  26 H :    0.040550
  27 H :    0.023927
  28 H :    0.023681
  29 H :    0.019784
  30 H :    0.010088
  31 H :    0.031019
  32 H :    0.016710
  33 H :    0.018842
  34 H :    0.018841
  35 H :    0.008249
  36 H :    0.009669
  37 H :    0.019423
  38 H :    0.007420
  39 H :    0.021312
  40 H :    0.039348
  41 H :    0.014292
  42 H :    0.025668
  43 H :    0.024822
  44 H :    0.036674
  45 H :    0.019633
  46 H :    0.004415
  47 H :    0.018550
  48 H :    0.016403
  49 H :    0.020269
  50 H :    0.002981
  51 H :    0.023291
  52 H :    0.036380
Sum of atomic charges:   -0.0000000

LOEWDIN ATOMIC CHARGES
----------------------
   0 C :   -0.048237
   1 C :   -0.044600
   2 C :   -0.047142
   3 C :   -0.180702
   4 C :   -0.051257
   5 C :   -0.043722
   6 P :    0.891451
   7 O :   -0.506521
   8 C :   -0.182308
   9 C :   -0.050428
  10 C :   -0.044032
  11 C :   -0.048213
  12 C :   -0.046053
  13 C :   -0.045193
  14 C :   -0.178433
  15 C :   -0.050414
  16 C :   -0.044631
  17 C :   -0.047271
  18 C :   -0.044640
  19 C :   -0.050583
  20 H :    0.023490
  21 H :    0.027852
  22 H :    0.028917
  23 H :    0.025274
  24 H :    0.020272
  25 H :    0.034586
  26 H :    0.031346
  27 H :    0.024354
  28 H :    0.024442
  29 H :    0.027467
  30 H :    0.024588
  31 H :    0.026132
  32 H :    0.024459
  33 H :    0.023027
  34 H :    0.027316
  35 H :    0.023469
  36 H :    0.023811
  37 H :    0.027131
  38 H :    0.023432
  39 H :    0.028776
  40 H :    0.033871
  41 H :    0.024680
  42 H :    0.021307
  43 H :    0.024014
  44 H :    0.030589
  45 H :    0.028347
  46 H :    0.022411
  47 H :    0.026862
  48 H :    0.027070
  49 H :    0.028747
  50 H :    0.021774
  51 H :    0.021171
  52 H :    0.031945

  Mayer bond orders larger than 0.100000
B(  0-C ,  1-C ) :   1.0948 B(  0-C ,  5-C ) :   1.0987 B(  0-C , 20-H ) :   0.9285
B(  0-C , 21-H ) :   0.9318 B(  1-C ,  2-C ) :   1.0963 B(  1-C , 22-H ) :   0.9308
B(  1-C , 23-H ) :   0.9258 B(  2-C ,  3-C ) :   1.0472 B(  2-C , 24-H ) :   0.9212
B(  2-C , 25-H ) :   0.9174 B(  3-C ,  4-C ) :   1.0177 B(  3-C ,  6-P ) :   0.8996
B(  3-C , 26-H ) :   0.8815 B(  4-C ,  5-C ) :   1.0950 B(  4-C , 27-H ) :   0.9257
B(  4-C , 28-H ) :   0.9160 B(  5-C , 29-H ) :   0.9314 B(  5-C , 30-H ) :   0.9257
B(  6-P ,  7-O ) :   1.8300 B(  6-P ,  8-C ) :   0.8719 B(  6-P , 14-C ) :   0.8996
B(  8-C ,  9-C ) :   1.0342 B(  8-C , 13-C ) :   1.0391 B(  8-C , 31-H ) :   0.8839
B(  9-C , 10-C ) :   1.0945 B(  9-C , 32-H ) :   0.9124 B(  9-C , 33-H ) :   0.9191
B( 10-C , 11-C ) :   1.0998 B( 10-C , 34-H ) :   0.9301 B( 10-C , 35-H ) :   0.9253
B( 11-C , 12-C ) :   1.0942 B( 11-C , 36-H ) :   0.9282 B( 11-C , 37-H ) :   0.9318
B( 12-C , 13-C ) :   1.0924 B( 12-C , 38-H ) :   0.9251 B( 12-C , 39-H ) :   0.9318
B( 13-C , 40-H ) :   0.9176 B( 13-C , 41-H ) :   0.9259 B( 14-C , 15-C ) :   1.0399
B( 14-C , 19-C ) :   1.0399 B( 14-C , 42-H ) :   0.8767 B( 15-C , 16-C ) :   1.1012
B( 15-C , 43-H ) :   0.9204 B( 15-C , 44-H ) :   0.9208 B( 16-C , 17-C ) :   1.1007
B( 16-C , 45-H ) :   0.9296 B( 16-C , 46-H ) :   0.9240 B( 17-C , 18-C ) :   1.0996
B( 17-C , 47-H ) :   0.9320 B( 17-C , 48-H ) :   0.9279 B( 18-C , 19-C ) :   1.0979
B( 18-C , 49-H ) :   0.9296 B( 18-C , 50-H ) :   0.9232 B( 19-C , 51-H ) :   0.9157
B( 19-C , 52-H ) :   0.9165

Dispersion correction           -0.108822336
FINAL SINGLE POINT ENERGY     -1121.882429540816

DIPOLE MOMENT
-------------

Method             : SCF
Type of density    : Electron Density
Multiplicity       :   1
Irrep              :   0
Energy             : -1121.7736072045447600 Eh
Relativity type    :
Basis              : AO
                                X                 Y                 Z
Electronic contribution:     -0.697183386      -2.449529160       7.706514560
Nuclear contribution   :      1.008910676       2.675311920      -9.024093669
                        -----------------------------------------
Total Dipole Moment    :      0.311727290       0.225782760      -1.317579109
                        -----------------------------------------
Magnitude (a.u.)       :      1.372649434
Magnitude (Debye)      :      3.488997585

Rotational constants in cm-1:             0.010116             0.008921             0.005816
Rotational constants in MHz :           303.283694           267.452588           174.358242

                             ****ORCA TERMINATED NORMALLY****
TOTAL RUN TIME: 0 days 0 hours 3 minutes 39 seconds 610 msec
