                         Program Version 6.0.0  -   RELEASE   -
|  1> ! RIJCOSX M062X def2-TZVP D3ZERO NormalSCF
|  2> %pal
|  3> nprocs 6
|  4> end
|  5>
|  6> * xyz 0 1
|  7>   C          -0.68534807616171     -1.71785284704540      1.57115005651116
|  8>   C          -1.25509167063904     -1.28508804240616      0.20828981106010
|  9>   C          -2.68476701257476     -0.74303232740760      0.41917749748109
| 10>   C          -1.40895315782917     -2.52096225643627     -0.71082879727316
| 11>   P          -0.23480500664742      0.02183942860476     -0.81253407681937
| 12>   C          -0.48501197456287      1.74238195701970      0.06096763858436
| 13>   C          -1.83206215194661      2.29622928534607     -0.46415228452597
| 14>   C          -0.48246476246831      1.76268763064782      1.59960864037469
| 15>   C           0.59564200071743      2.71762316936434     -0.45125988365717
| 16>   C           1.64376136455093     -0.44789050800511     -0.60832150299755
| 17>   C           2.30462714827996     -0.14378809728174      0.74793924479041
| 18>   C           2.39923058813910      0.29804026875416     -1.73486612774917
| 19>   C           1.81326255841383     -1.95044523245195     -0.91696628514520
| 20>   H           0.28792051212777     -2.23607207448696      1.47765602344538
| 21>   H          -1.38621273577186     -2.43271394231153      2.05714997082017
| 22>   H          -0.55296208098370     -0.86345642151426      2.26063618836832
| 23>   H          -2.73094080452503      0.08172005212177      1.15457386160881
| 24>   H          -3.13730899101023     -0.39347011983603     -0.53078996649570
| 25>   H          -3.32433385890634     -1.56427669373593      0.80955092508163
| 26>   H          -0.46029352883805     -3.05754394102738     -0.88400603559870
| 27>   H          -1.82032920767921     -2.23257215592125     -1.69924293307912
| 28>   H          -2.11528162021572     -3.24090631708712     -0.24215813449609
| 29>   H          -2.70722979849280      1.73375408075367     -0.09577852853602
| 30>   H          -1.86233636506025      2.28439161765965     -1.57243246932823
| 31>   H          -1.95134033606298      3.34987816075452     -0.12883677613326
| 32>   H           0.46894238907411      1.39322924820085      2.02586384962606
| 33>   H          -1.30573496521873      1.16161091608504      2.02962306746412
| 34>   H          -0.62363732013590      2.80691683480718      1.95756608667242
| 35>   H           0.65201050676720      2.72434787728167     -1.55858724116307
| 36>   H           1.60220120103233      2.49661741415158     -0.05002947203354
| 37>   H           0.33217878450574      3.74706415857033     -0.12491210018007
| 38>   H           3.36352230593776     -0.48546362757414      0.73045266694647
| 39>   H           1.80308630299835     -0.66169018637162      1.58642694993401
| 40>   H           2.31972466040493      0.93879068081426      0.97603015816774
| 41>   H           2.43177432974580      1.39144181524483     -1.58832879792332
| 42>   H           1.93578898280999      0.10100038566400     -2.72266594908542
| 43>   H           3.45067572570648     -0.06255151383135     -1.77104250326894
| 44>   H           1.40517024550854     -2.60259941932802     -0.12270171908753
| 45>   H           2.89798240005327     -2.17854321830340     -1.00243129786992
| 46>   H           1.33894141895718     -2.22864803948299     -1.87978875449042
| 47> **                         ****END OF INPUT****

CARTESIAN COORDINATES (ANGSTROEM)
---------------------------------
  C     -0.685348   -1.717853    1.571150
  C     -1.255092   -1.285088    0.208290
  C     -2.684767   -0.743032    0.419177
  C     -1.408953   -2.520962   -0.710829
  P     -0.234805    0.021839   -0.812534
  C     -0.485012    1.742382    0.060968
  C     -1.832062    2.296229   -0.464152
  C     -0.482465    1.762688    1.599609
  C      0.595642    2.717623   -0.451260
  C      1.643761   -0.447891   -0.608322
  C      2.304627   -0.143788    0.747939
  C      2.399231    0.298040   -1.734866
  C      1.813263   -1.950445   -0.916966
  H      0.287921   -2.236072    1.477656
  H     -1.386213   -2.432714    2.057150
  H     -0.552962   -0.863456    2.260636
  H     -2.730941    0.081720    1.154574
  H     -3.137309   -0.393470   -0.530790
  H     -3.324334   -1.564277    0.809551
  H     -0.460294   -3.057544   -0.884006
  H     -1.820329   -2.232572   -1.699243
  H     -2.115282   -3.240906   -0.242158
  H     -2.707230    1.733754   -0.095779
  H     -1.862336    2.284392   -1.572432
  H     -1.951340    3.349878   -0.128837
  H      0.468942    1.393229    2.025864
  H     -1.305735    1.161611    2.029623
  H     -0.623637    2.806917    1.957566
  H      0.652011    2.724348   -1.558587
  H      1.602201    2.496617   -0.050029
  H      0.332179    3.747064   -0.124912
  H      3.363522   -0.485464    0.730453
  H      1.803086   -0.661690    1.586427
  H      2.319725    0.938791    0.976030
  H      2.431774    1.391442   -1.588329
  H      1.935789    0.101000   -2.722666
  H      3.450676   -0.062552   -1.771043
  H      1.405170   -2.602599   -0.122702
  H      2.897982   -2.178543   -1.002431
  H      1.338941   -2.228648   -1.879789

 Total Charge           Charge          ....    0
 Multiplicity           Mult            ....    1
 Number of Electrons    NEL             ....  114
 Basis Dimension        Dim             ....  571

ORBITAL ENERGIES
----------------

  NO   OCC          E(Eh)            E(eV)
   0   2.0000     -78.013155     -2122.8459
   1   2.0000     -10.557035      -287.2715
   2   2.0000     -10.556931      -287.2687
   3   2.0000     -10.556909      -287.2681
   4   2.0000     -10.530636      -286.5532
   5   2.0000     -10.530578      -286.5516
   6   2.0000     -10.530532      -286.5504
   7   2.0000     -10.529834      -286.5314
   8   2.0000     -10.529826      -286.5311
   9   2.0000     -10.529719      -286.5282
  10   2.0000     -10.525524      -286.4141
  11   2.0000     -10.525501      -286.4135
  12   2.0000     -10.525488      -286.4131
  13   2.0000      -6.828216      -185.8052
  14   2.0000      -4.942520      -134.4928
  15   2.0000      -4.942030      -134.4795
  16   2.0000      -4.942019      -134.4792
  17   2.0000      -0.919684       -25.0259
  18   2.0000      -0.897058       -24.4102
  19   2.0000      -0.896968       -24.4077
  20   2.0000      -0.781396       -21.2629
  21   2.0000      -0.775441       -21.1008
  22   2.0000      -0.775400       -21.0997
  23   2.0000      -0.768504       -20.9121
  24   2.0000      -0.768419       -20.9097
  25   2.0000      -0.758616       -20.6430
  26   2.0000      -0.703830       -19.1522
  27   2.0000      -0.619306       -16.8522
  28   2.0000      -0.619181       -16.8488
  29   2.0000      -0.583973       -15.8907
  30   2.0000      -0.528806       -14.3895
  31   2.0000      -0.528734       -14.3876
  32   2.0000      -0.516239       -14.0476
  33   2.0000      -0.509446       -13.8627
  34   2.0000      -0.509271       -13.8580
  35   2.0000      -0.491121       -13.3641
  36   2.0000      -0.487842       -13.2749
  37   2.0000      -0.487706       -13.2712
  38   2.0000      -0.465259       -12.6603
  39   2.0000      -0.454362       -12.3638
  40   2.0000      -0.448799       -12.2125
  41   2.0000      -0.448725       -12.2104
  42   2.0000      -0.438535       -11.9331
  43   2.0000      -0.438490       -11.9319
  44   2.0000      -0.433447       -11.7947
  45   2.0000      -0.426270       -11.5994
  46   2.0000      -0.421299       -11.4641
  47   2.0000      -0.421088       -11.4584
  48   2.0000      -0.398775       -10.8512
  49   2.0000      -0.398723       -10.8498
  50   2.0000      -0.398398       -10.8410
  51   2.0000      -0.384520       -10.4633
  52   2.0000      -0.384439       -10.4611
  53   2.0000      -0.366083        -9.9616
  54   2.0000      -0.325726        -8.8635
  55   2.0000      -0.325666        -8.8618
  56   2.0000      -0.257993        -7.0203
  57   0.0000       0.057967         1.5774
  58   0.0000       0.071524         1.9463
  59   0.0000       0.071713         1.9514
  60   0.0000       0.087715         2.3868
  61   0.0000       0.089618         2.4386

MULLIKEN ATOMIC CHARGES
-----------------------
   0 C :   -0.464748
   1 C :   -0.021885
   2 C :   -0.521858
   3 C :   -0.447701
   4 P :    0.102958
   5 C :   -0.020438
   6 C :   -0.447065
   7 C :   -0.464992
   8 C :   -0.520063
   9 C :   -0.020909
  10 C :   -0.462829
  11 C :   -0.447518
  12 C :   -0.518949
  13 H :    0.140156
  14 H :    0.152080
  15 H :    0.170141
  16 H :    0.147550
  17 H :    0.182618
  18 H :    0.156015
  19 H :    0.159822
  20 H :    0.169340
  21 H :    0.143131
  22 H :    0.159501
  23 H :    0.169431
  24 H :    0.142669
  25 H :    0.169835
  26 H :    0.140173
  27 H :    0.152451
  28 H :    0.182495
  29 H :    0.146478
  30 H :    0.155886
  31 H :    0.152134
  32 H :    0.170278
  33 H :    0.139092
  34 H :    0.159233
  35 H :    0.169287
  36 H :    0.142686
  37 H :    0.146202
  38 H :    0.155503
  39 H :    0.181813
Sum of atomic charges:   -0.0000000

LOEWDIN ATOMIC CHARGES
----------------------
   0 C :   -0.299422
   1 C :   -0.446391
   2 C :   -0.302621
   3 C :   -0.307002
   4 P :    0.700489
   5 C :   -0.447046
   6 C :   -0.306754
   7 C :   -0.299425
   8 C :   -0.302230
   9 C :   -0.446428
  10 C :   -0.299115
  11 C :   -0.306736
  12 C :   -0.302388
  13 H :    0.119114
  14 H :    0.128639
  15 H :    0.124038
  16 H :    0.117940
  17 H :    0.128812
  18 H :    0.128015
  19 H :    0.122374
  20 H :    0.127555
  21 H :    0.125361
  22 H :    0.122458
  23 H :    0.127457
  24 H :    0.125209
  25 H :    0.124101
  26 H :    0.119139
  27 H :    0.128722
  28 H :    0.128896
  29 H :    0.117833
  30 H :    0.128035
  31 H :    0.128603
  32 H :    0.124178
  33 H :    0.118974
  34 H :    0.122320
  35 H :    0.127453
  36 H :    0.125330
  37 H :    0.117799
  38 H :    0.127963
  39 H :    0.128750

  Mayer bond orders larger than 0.100000
B(  0-C ,  1-C ) :   0.9230 B(  0-C , 13-H ) :   0.9733 B(  0-C , 14-H ) :   0.9559
B(  0-C , 15-H ) :   0.9692 B(  1-C ,  2-C ) :   0.9150 B(  1-C ,  3-C ) :   0.9542
B(  1-C ,  4-P ) :   0.9398 B(  2-C , 16-H ) :   0.9722 B(  2-C , 17-H ) :   0.9678
B(  2-C , 18-H ) :   0.9609 B(  3-C , 19-H ) :   0.9646 B(  3-C , 20-H ) :   0.9663
B(  3-C , 21-H ) :   0.9602 B(  4-P ,  5-C ) :   0.9412 B(  4-P ,  9-C ) :   0.9408
B(  5-C ,  6-C ) :   0.9526 B(  5-C ,  7-C ) :   0.9243 B(  5-C ,  8-C ) :   0.9157
B(  6-C , 22-H ) :   0.9649 B(  6-C , 23-H ) :   0.9663 B(  6-C , 24-H ) :   0.9600
B(  7-C , 25-H ) :   0.9690 B(  7-C , 26-H ) :   0.9731 B(  7-C , 27-H ) :   0.9558
B(  8-C , 28-H ) :   0.9678 B(  8-C , 29-H ) :   0.9727 B(  8-C , 30-H ) :   0.9606
B(  9-C , 10-C ) :   0.9225 B(  9-C , 11-C ) :   0.9537 B(  9-C , 12-C ) :   0.9162
B( 10-C , 31-H ) :   0.9555 B( 10-C , 32-H ) :   0.9691 B( 10-C , 33-H ) :   0.9735
B( 11-C , 34-H ) :   0.9646 B( 11-C , 35-H ) :   0.9664 B( 11-C , 36-H ) :   0.9604
B( 12-C , 37-H ) :   0.9723 B( 12-C , 38-H ) :   0.9609 B( 12-C , 39-H ) :   0.9685

Dispersion correction           -0.002622327
FINAL SINGLE POINT ENERGY      -814.799156284643

DIPOLE MOMENT
-------------

Method             : SCF
Type of density    : Electron Density
Multiplicity       :   1
Irrep              :   0
Energy             :  -814.7965339574514019 Eh
Relativity type    :
Basis              : AO
                                X                 Y                 Z
Electronic contribution:     -1.341171071       0.126971373      -4.662394216
Nuclear contribution   :      1.454909058      -0.136967605       5.062325614
                        -----------------------------------------
Total Dipole Moment    :      0.113737987      -0.009996232       0.399931398
                        -----------------------------------------
Magnitude (a.u.)       :      0.415910300
Magnitude (Debye)      :      1.057159968

Rotational constants in cm-1:             0.023764             0.023760             0.015843
Rotational constants in MHz :           712.431138           712.292817           474.954866

                             ****ORCA TERMINATED NORMALLY****
TOTAL RUN TIME: 0 days 0 hours 1 minutes 43 seconds 603 msec
