                         Program Version 6.0.0  -   RELEASE   -
|  1> ! RIJCOSX M062X def2-TZVP D3ZERO NormalSCF
|  2> %pal
|  3> nprocs 6
|  4> end
|  5>
|  6> * xyz 0 1
|  7>   C           2.78849434195004      0.06125349288119      1.02309971386045
|  8>   C           1.88068397026187      0.19342351998354      2.08682829530240
|  9>   C           0.49846708424966      0.19998457578109      1.83517748806602
| 10>   C           0.00113517580230      0.07309962056268      0.51961835251110
| 11>   C           0.92806793748017     -0.06080128732498     -0.54174697744419
| 12>   C           2.31010515530372     -0.06570959672487     -0.29274149793919
| 13>   P          -1.84849375009681      0.08624677639377      0.27303262002537
| 14>   C          -1.87113463421533      1.36350714113686     -1.14238182158268
| 15>   O          -1.24796032570117      2.56978168288304     -0.76555445142450
| 16>   C          -1.93691892426925     -1.51836590616666     -0.75442251094331
| 17>   O          -1.37272296235174     -2.60982904113329     -0.06498485604590
| 18>   H           3.87183534206172      0.05684999253703      1.21827453028989
| 19>   H           2.25075204815254      0.29265872403297      3.11887986903374
| 20>   H          -0.21691105444346      0.30477082418138      2.66631359521041
| 21>   H           0.56932696000521     -0.16347650303749     -1.57905942899760
| 22>   H           3.01789749708464     -0.16982917842229     -1.12972732502175
| 23>   H          -2.93147220689186      1.59616421939405     -1.37432991370100
| 24>   H          -1.42569975152313      0.91077402710390     -2.06693620130634
| 25>   H          -0.33688575805079      2.34344993640098     -0.48925853456893
| 26>   H          -3.00769005174993     -1.75370089504129     -0.92881562319706
| 27>   H          -1.47061915056461     -1.34724010997223     -1.76003703705071
| 28>   H          -0.45025694249380     -2.36301401544937      0.14877371492376
| 29> **                         ****END OF INPUT****

CARTESIAN COORDINATES (ANGSTROEM)
---------------------------------
  C      2.788494    0.061253    1.023100
  C      1.880684    0.193424    2.086828
  C      0.498467    0.199985    1.835177
  C      0.001135    0.073100    0.519618
  C      0.928068   -0.060801   -0.541747
  C      2.310105   -0.065710   -0.292741
  P     -1.848494    0.086247    0.273033
  C     -1.871135    1.363507   -1.142382
  O     -1.247960    2.569782   -0.765554
  C     -1.936919   -1.518366   -0.754423
  O     -1.372723   -2.609829   -0.064985
  H      3.871835    0.056850    1.218275
  H      2.250752    0.292659    3.118880
  H     -0.216911    0.304771    2.666314
  H      0.569327   -0.163477   -1.579059
  H      3.017897   -0.169829   -1.129727
  H     -2.931472    1.596164   -1.374330
  H     -1.425700    0.910774   -2.066936
  H     -0.336886    2.343450   -0.489259
  H     -3.007690   -1.753701   -0.928816
  H     -1.470619   -1.347240   -1.760037
  H     -0.450257   -2.363014    0.148774

 Total Charge           Charge          ....    0
 Multiplicity           Mult            ....    1
 Number of Electrons    NEL             ....   90
 Basis Dimension        Dim             ....  413

ORBITAL ENERGIES
----------------

  NO   OCC          E(Eh)            E(eV)
   0   2.0000     -78.030323     -2123.3130
   1   2.0000     -19.635677      -534.3139
   2   2.0000     -19.635616      -534.3123
   3   2.0000     -10.598291      -288.3942
   4   2.0000     -10.598199      -288.3917
   5   2.0000     -10.572165      -287.6832
   6   2.0000     -10.569611      -287.6137
   7   2.0000     -10.569447      -287.6093
   8   2.0000     -10.568744      -287.5902
   9   2.0000     -10.567550      -287.5577
  10   2.0000     -10.566581      -287.5313
  11   2.0000      -6.847042      -186.3175
  12   2.0000      -4.961174      -135.0004
  13   2.0000      -4.961014      -134.9961
  14   2.0000      -4.960781      -134.9897
  15   2.0000      -1.152587       -31.3635
  16   2.0000      -1.151575       -31.3360
  17   2.0000      -0.973300       -26.4848
  18   2.0000      -0.866577       -23.5807
  19   2.0000      -0.858406       -23.3584
  20   2.0000      -0.808586       -22.0028
  21   2.0000      -0.758957       -20.6523
  22   2.0000      -0.710128       -19.3236
  23   2.0000      -0.702823       -19.1248
  24   2.0000      -0.649051       -17.6616
  25   2.0000      -0.596155       -16.2222
  26   2.0000      -0.583169       -15.8688
  27   2.0000      -0.577563       -15.7163
  28   2.0000      -0.536456       -14.5977
  29   2.0000      -0.530559       -14.4372
  30   2.0000      -0.520426       -14.1615
  31   2.0000      -0.516382       -14.0515
  32   2.0000      -0.506659       -13.7869
  33   2.0000      -0.501941       -13.6585
  34   2.0000      -0.479149       -13.0383
  35   2.0000      -0.454104       -12.3568
  36   2.0000      -0.443305       -12.0629
  37   2.0000      -0.420117       -11.4320
  38   2.0000      -0.401776       -10.9329
  39   2.0000      -0.391651       -10.6574
  40   2.0000      -0.370910       -10.0930
  41   2.0000      -0.340258        -9.2589
  42   2.0000      -0.328392        -8.9360
  43   2.0000      -0.318368        -8.6632
  44   2.0000      -0.292136        -7.9494
  45   0.0000      -0.017371        -0.4727
  46   0.0000      -0.003451        -0.0939
  47   0.0000       0.044071         1.1992
  48   0.0000       0.057940         1.5766
  49   0.0000       0.060247         1.6394

MULLIKEN ATOMIC CHARGES
-----------------------
   0 C :   -0.128221
   1 C :   -0.158548
   2 C :   -0.041458
   3 C :   -0.314798
   4 C :   -0.165392
   5 C :   -0.145157
   6 P :    0.205921
   7 C :   -0.199275
   8 O :   -0.443756
   9 C :   -0.197514
  10 O :   -0.444607
  11 H :    0.152974
  12 H :    0.153169
  13 H :    0.164837
  14 H :    0.173782
  15 H :    0.153622
  16 H :    0.153136
  17 H :    0.128324
  18 H :    0.335835
  19 H :    0.152731
  20 H :    0.128618
  21 H :    0.335775
Sum of atomic charges:   -0.0000000

LOEWDIN ATOMIC CHARGES
----------------------
   0 C :   -0.132603
   1 C :   -0.134761
   2 C :   -0.141414
   3 C :   -0.321448
   4 C :   -0.160647
   5 C :   -0.140898
   6 P :    0.575394
   7 C :   -0.507657
   8 O :   -0.047888
   9 C :   -0.507104
  10 O :   -0.047954
  11 H :    0.150007
  12 H :    0.150572
  13 H :    0.152103
  14 H :    0.150019
  15 H :    0.150194
  16 H :    0.123290
  17 H :    0.101857
  18 H :    0.181643
  19 H :    0.123110
  20 H :    0.102188
  21 H :    0.181997

  Mayer bond orders larger than 0.100000
B(  0-C ,  1-C ) :   1.4383 B(  0-C ,  5-C ) :   1.4342 B(  0-C , 11-H ) :   0.9447
B(  1-C ,  2-C ) :   1.4533 B(  1-C , 12-H ) :   0.9471 B(  2-C ,  3-C ) :   1.4033
B(  2-C , 13-H ) :   0.9289 B(  3-C ,  4-C ) :   1.2641 B(  3-C ,  6-P ) :   0.9975
B(  4-C ,  5-C ) :   1.4914 B(  4-C , 14-H ) :   0.9285 B(  5-C , 15-H ) :   0.9415
B(  6-P ,  7-C ) :   0.9656 B(  6-P ,  9-C ) :   0.9655 B(  7-C ,  8-O ) :   0.9803
B(  7-C , 16-H ) :   0.9495 B(  7-C , 17-H ) :   0.9475 B(  8-O , 18-H ) :   0.8730
B(  9-C , 10-O ) :   0.9802 B(  9-C , 19-H ) :   0.9489 B(  9-C , 20-H ) :   0.9469
B( 10-O , 21-H ) :   0.8731

Dispersion correction           -0.000875238
FINAL SINGLE POINT ENERGY      -803.220450430880

DIPOLE MOMENT
-------------

Method             : SCF
Type of density    : Electron Density
Multiplicity       :   1
Irrep              :   0
Energy             :  -803.2195751925397644 Eh
Relativity type    :
Basis              : AO
                                X                 Y                 Z
Electronic contribution:     -2.854982930       0.545952089       3.467126313
Nuclear contribution   :      3.940744960      -0.613092265      -3.731868102
                        -----------------------------------------
Total Dipole Moment    :      1.085762031      -0.067140176      -0.264741789
                        -----------------------------------------
Magnitude (a.u.)       :      1.119587069
Magnitude (Debye)      :      2.845764173

Rotational constants in cm-1:             0.041718             0.024992             0.019854
Rotational constants in MHz :          1250.682796           749.255136           595.214303

                             ****ORCA TERMINATED NORMALLY****
TOTAL RUN TIME: 0 days 0 hours 0 minutes 38 seconds 113 msec
