                         Program Version 6.0.0  -   RELEASE   -
|  1> ! RIJONX B3LYP def2-SVP D3BJ TIGHTSCF Opt
|  2> %pal
|  3> nprocs 6
|  4> end
|  5>
|  6> * xyz 0 1
|  7> C      2.520376   -1.288477   -0.135203
|  8> C      1.641830   -0.037559   -0.150443
|  9> P      0.003720   -0.301190    0.692044
| 10> C     -0.739946    1.391905    0.484480
| 11> C     -0.187344    2.405166    1.486879
| 12> C     -0.843235    3.707414    1.311342
| 13> N     -1.368278    4.730818    1.161682
| 14> C     -0.903580   -1.216832   -0.650008
| 15> C     -2.327077   -1.598695   -0.244168
| 16> C     -2.977605   -2.360539   -1.318067
| 17> N     -3.480077   -2.960369   -2.174310
| 18> C      3.816675   -1.010188   -0.766882
| 19> N      4.836074   -0.777463   -1.268965
| 20> H      2.683598   -1.627402    0.895037
| 21> H      2.030447   -2.112449   -0.666258
| 22> H      1.475765    0.301892   -1.179900
| 23> H      2.164439    0.773760    0.369854
| 24> H     -0.578669    1.741294   -0.542411
| 25> H     -1.824153    1.305707    0.622794
| 26> H      0.894254    2.526480    1.358773
| 27> H     -0.347872    2.052953    2.513077
| 28> H     -0.339678   -2.128566   -0.879839
| 29> H     -0.914757   -0.612488   -1.565011
| 30> H     -2.921119   -0.703843   -0.026602
| 31> H     -2.313787   -2.201332    0.672105
| 32> **                         ****END OF INPUT****
 Total Charge           Charge          ....    0
 Multiplicity           Mult            ....    1
 Number of Electrons    NEL             ....  102
Dispersion correction           -0.047578783
FINAL SINGLE POINT ENERGY      -854.938066598250
Dispersion correction             ... done (  0.1 sec)
Dispersion correction           -0.047349275
FINAL SINGLE POINT ENERGY      -854.939335535847
Dispersion correction             ... done (  0.1 sec)
Dispersion correction           -0.047237724
FINAL SINGLE POINT ENERGY      -854.939533375331
Dispersion correction             ... done (  0.1 sec)
Dispersion correction           -0.047214109
FINAL SINGLE POINT ENERGY      -854.939554230407
Dispersion correction             ... done (  0.1 sec)
Dispersion correction           -0.047213409
FINAL SINGLE POINT ENERGY      -854.939558524594
Dispersion correction             ... done (  0.1 sec)
                    ***********************HURRAY********************

CARTESIAN COORDINATES (ANGSTROEM)
---------------------------------
  C      2.542272   -1.277587   -0.125684
  C      1.637228   -0.034070   -0.181548
  P      0.003760   -0.301872    0.692502
  C     -0.729920    1.404156    0.456875
  C     -0.209212    2.414103    1.494815
  C     -0.836279    3.729751    1.352276
  N     -1.347457    4.760559    1.217699
  C     -0.909797   -1.197571   -0.674168
  C     -2.326243   -1.624293   -0.249472
  C     -3.014695   -2.382262   -1.296345
  N     -3.536406   -2.979045   -2.141120
  C      3.846518   -1.043263   -0.748965
  N      4.870224   -0.831360   -1.248060
  H      2.703175   -1.588253    0.920284
  H      2.069775   -2.133508   -0.636312
  H      1.471792    0.274635   -1.227473
  H      2.144800    0.803285    0.323914
  H     -0.538412    1.769552   -0.565974
  H     -1.822326    1.307884    0.564558
  H      0.882208    2.545551    1.405073
  H     -0.396116    2.044455    2.517006
  H     -0.323301   -2.095886   -0.925818
  H     -0.952594   -0.576153   -1.584479
  H     -2.945555   -0.745768   -0.002093
  H     -2.283439   -2.243045    0.662509

 Multiplicity           Mult            ....    1
 Number of Electrons    NEL             ....  102
 Basis Dimension        Dim             ....  246

ORBITAL ENERGIES
----------------

  NO   OCC          E(Eh)            E(eV)
   0   2.0000     -77.085387     -2097.6000
   1   2.0000     -14.335782      -390.0965
   2   2.0000     -14.335781      -390.0964
   3   2.0000     -14.335777      -390.0963
   4   2.0000     -10.260602      -279.2052
   5   2.0000     -10.260586      -279.2047
   6   2.0000     -10.260583      -279.2047
   7   2.0000     -10.237045      -278.5641
   8   2.0000     -10.237040      -278.5640
   9   2.0000     -10.237040      -278.5640
  10   2.0000     -10.235874      -278.5323
  11   2.0000     -10.235860      -278.5319
  12   2.0000     -10.235803      -278.5304
  13   2.0000      -6.583095      -179.1351
  14   2.0000      -4.748402      -129.2106
  15   2.0000      -4.748400      -129.2105
  16   2.0000      -4.745398      -129.1288
  17   2.0000      -0.907701       -24.6998
  18   2.0000      -0.907301       -24.6889
  19   2.0000      -0.907299       -24.6889
  20   2.0000      -0.841849       -22.9079
  21   2.0000      -0.818242       -22.2655
  22   2.0000      -0.818238       -22.2654
  23   2.0000      -0.736020       -20.0281
  24   2.0000      -0.678468       -18.4621
  25   2.0000      -0.678446       -18.4614
  26   2.0000      -0.576519       -15.6879
  27   2.0000      -0.541191       -14.7265
  28   2.0000      -0.541168       -14.7259
  29   2.0000      -0.520822       -14.1723
  30   2.0000      -0.510607       -13.8943
  31   2.0000      -0.510586       -13.8938
  32   2.0000      -0.507338       -13.8054
  33   2.0000      -0.450210       -12.2508
  34   2.0000      -0.448345       -12.2001
  35   2.0000      -0.448310       -12.1991
  36   2.0000      -0.422717       -11.5027
  37   2.0000      -0.414044       -11.2667
  38   2.0000      -0.414011       -11.2658
  39   2.0000      -0.380756       -10.3609
  40   2.0000      -0.380731       -10.3602
  41   2.0000      -0.367960       -10.0127
  42   2.0000      -0.361705        -9.8425
  43   2.0000      -0.361695        -9.8422
  44   2.0000      -0.344611        -9.3773
  45   2.0000      -0.341107        -9.2820
  46   2.0000      -0.339600        -9.2410
  47   2.0000      -0.339596        -9.2409
  48   2.0000      -0.335867        -9.1394
  49   2.0000      -0.335859        -9.1392
  50   2.0000      -0.272854        -7.4247
  51   0.0000      -0.007137        -0.1942
  52   0.0000      -0.007107        -0.1934
  53   0.0000       0.001964         0.0534
  54   0.0000       0.019251         0.5238
  55   0.0000       0.019260         0.5241

MULLIKEN ATOMIC CHARGES
-----------------------
   0 C :    0.124080
   1 C :   -0.183159
   2 P :    0.196830
   3 C :   -0.183221
   4 C :    0.124180
   5 C :   -0.279491
   6 N :    0.064124
   7 C :   -0.183256
   8 C :    0.123984
   9 C :   -0.279381
  10 N :    0.064110
  11 C :   -0.279474
  12 N :    0.064091
  13 H :    0.053529
  14 H :    0.047186
  15 H :    0.051830
  16 H :    0.056294
  17 H :    0.051861
  18 H :    0.056320
  19 H :    0.047174
  20 H :    0.053556
  21 H :    0.056304
  22 H :    0.051833
  23 H :    0.047121
  24 H :    0.053575
Sum of atomic charges:   -0.0000000

LOEWDIN ATOMIC CHARGES
----------------------
   0 C :   -0.054686
   1 C :   -0.161602
   2 P :    0.464516
   3 C :   -0.161520
   4 C :   -0.054679
   5 C :   -0.039273
   6 N :   -0.066691
   7 C :   -0.161603
   8 C :   -0.054673
   9 C :   -0.039269
  10 N :   -0.066701
  11 C :   -0.039280
  12 N :   -0.066705
  13 H :    0.055811
  14 H :    0.051775
  15 H :    0.028183
  16 H :    0.031631
  17 H :    0.028158
  18 H :    0.031627
  19 H :    0.051772
  20 H :    0.055828
  21 H :    0.031627
  22 H :    0.028187
  23 H :    0.051752
  24 H :    0.055815

  Mayer bond orders larger than 0.100000
B(  0-C ,  1-C ) :   1.0569 B(  0-C , 11-C ) :   1.1299 B(  0-C , 13-H ) :   0.9016
B(  0-C , 14-H ) :   0.9000 B(  1-C ,  2-P ) :   0.9753 B(  1-C , 15-H ) :   0.9277
B(  1-C , 16-H ) :   0.9409 B(  2-P ,  3-C ) :   0.9755 B(  2-P ,  7-C ) :   0.9755
B(  3-C ,  4-C ) :   1.0569 B(  3-C , 17-H ) :   0.9277 B(  3-C , 18-H ) :   0.9410
B(  4-C ,  5-C ) :   1.1300 B(  4-C , 19-H ) :   0.8999 B(  4-C , 20-H ) :   0.9016
B(  5-C ,  6-N ) :   3.0596 B(  7-C ,  8-C ) :   1.0570 B(  7-C , 21-H ) :   0.9410
B(  7-C , 22-H ) :   0.9277 B(  8-C ,  9-C ) :   1.1300 B(  8-C , 23-H ) :   0.9000
B(  8-C , 24-H ) :   0.9016 B(  9-C , 10-N ) :   3.0596 B( 11-C , 12-N ) :   3.0596

Dispersion correction           -0.047216072
FINAL SINGLE POINT ENERGY      -854.939559594524

DIPOLE MOMENT
-------------

Method             : SCF
Type of density    : Electron Density
Multiplicity       :   1
Irrep              :   0
Energy             :  -854.8923435226083711 Eh
Relativity type    :
Basis              : AO
                                X                 Y                 Z
Electronic contribution:     -0.001251114      -0.066556279       0.165427315
Nuclear contribution   :      0.009502459      -0.493980647       1.116046776
                        -----------------------------------------
Total Dipole Moment    :      0.008251345      -0.560536926       1.281474091
                        -----------------------------------------
Magnitude (a.u.)       :      1.398729987
Magnitude (Debye)      :      3.555289083

Rotational constants in cm-1:             0.015042             0.015023             0.007972
Rotational constants in MHz :           450.943125           450.393170           239.000937

                             ****ORCA TERMINATED NORMALLY****
TOTAL RUN TIME: 0 days 0 hours 1 minutes 28 seconds 36 msec
