                         Program Version 6.0.0  -   RELEASE   -
|  1> ! RI BP86 def2-SVP D3BJ TIGHTSCF Opt
|  2> %pal
|  3> nprocs 6
|  4> end
|  5>
|  6> * xyz 0 1
|  7> C     -1.701617   -2.562064   -0.358155
|  8> C     -2.047904   -1.085423   -0.255030
|  9> P     -0.984343   -0.195817    0.965631
| 10> C     -1.612198    1.523825    0.718241
| 11> C     -0.848874    2.544629    1.546681
| 12> C      0.630385   -0.152941    0.127816
| 13> C      0.808028    0.306627   -1.183776
| 14> C      2.075355    0.315158   -1.773995
| 15> C      3.182427   -0.135986   -1.060120
| 16> C      3.023187   -0.595850    0.244027
| 17> C      1.756056   -0.603978    0.833076
| 18> H     -2.385270   -3.059210   -1.054233
| 19> H     -1.788600   -3.064061    0.611733
| 20> H     -0.682227   -2.715282   -0.727873
| 21> H     -1.987809   -0.623639   -1.245700
| 22> H     -3.089607   -0.992960    0.072698
| 23> H     -2.665565    1.546438    1.019913
| 24> H     -1.581377    1.810306   -0.337820
| 25> H     -0.891573    2.307832    2.615490
| 26> H     -1.283283    3.540087    1.407355
| 27> H      0.205116    2.598609    1.254250
| 28> H     -0.034039    0.665504   -1.768925
| 29> H      2.196040    0.674892   -2.792439
| 30> H      4.167354   -0.129268   -1.519055
| 31> H      3.883350   -0.949227    0.806331
| 32> H      1.656987   -0.968202    1.853881
| 33> **                         ****END OF INPUT****
 Total Charge           Charge          ....    0
 Multiplicity           Mult            ....    1
 Number of Electrons    NEL             ....   90
Dispersion correction           -0.048394864
FINAL SINGLE POINT ENERGY      -731.136353800885
Dispersion correction             ... done (  0.1 sec)
Dispersion correction           -0.048309572
FINAL SINGLE POINT ENERGY      -731.140823661100
Dispersion correction             ... done (  0.1 sec)
Dispersion correction           -0.048500672
FINAL SINGLE POINT ENERGY      -731.141444154417
Dispersion correction             ... done (  0.1 sec)
FINAL SINGLE POINT ENERGY      -731.141613649874
FINAL SINGLE POINT ENERGY      -731.141644049094
FINAL SINGLE POINT ENERGY      -731.141649970182
FINAL SINGLE POINT ENERGY      -731.141652277064
FINAL SINGLE POINT ENERGY      -731.141653841307
FINAL SINGLE POINT ENERGY      -731.141655199976
Dispersion correction             ... done (  0.1 sec)
Dispersion correction           -0.048537406
FINAL SINGLE POINT ENERGY      -731.141656463967
Dispersion correction             ... done (  0.1 sec)
Dispersion correction           -0.048533858
FINAL SINGLE POINT ENERGY      -731.141657382556
Dispersion correction             ... done (  0.1 sec)
                    ***********************HURRAY********************

CARTESIAN COORDINATES (ANGSTROEM)
---------------------------------
  C     -1.677615   -2.553208   -0.474318
  C     -2.095021   -1.095120   -0.260227
  P     -1.049538   -0.236902    1.043876
  C     -1.607086    1.535709    0.754434
  C     -0.755221    2.545080    1.529357
  C      0.594145   -0.185274    0.173218
  C      0.746355    0.207076   -1.174837
  C      2.014641    0.240383   -1.773795
  C      3.154493   -0.116629   -1.030954
  C      3.017908   -0.507959    0.310442
  C      1.744998   -0.543424    0.905786
  H     -2.345368   -3.062079   -1.199744
  H     -1.709392   -3.125773    0.475673
  H     -0.642054   -2.618164   -0.867096
  H     -2.062495   -0.527824   -1.216885
  H     -3.143768   -1.035603    0.104560
  H     -2.669130    1.582854    1.080928
  H     -1.597406    1.762546   -0.334821
  H     -0.764249    2.330124    2.617991
  H     -1.125618    3.580971    1.385010
  H      0.301762    2.515664    1.193229
  H     -0.137222    0.492113   -1.768694
  H      2.116856    0.547565   -2.826437
  H      4.149795   -0.089604   -1.500863
  H      3.906456   -0.789179    0.896814
  H      1.633774   -0.853344    1.957355

 Multiplicity           Mult            ....    1
 Number of Electrons    NEL             ....   90
 Basis Dimension        Dim             ....  233

ORBITAL ENERGIES
----------------

  NO   OCC          E(Eh)            E(eV)
   0   2.0000     -76.330098     -2077.0475
   1   2.0000      -9.924242      -270.0523
   2   2.0000      -9.923776      -270.0397
   3   2.0000      -9.923484      -270.0317
   4   2.0000      -9.922238      -269.9978
   5   2.0000      -9.921737      -269.9842
   6   2.0000      -9.921431      -269.9759
   7   2.0000      -9.917137      -269.8590
   8   2.0000      -9.916727      -269.8479
   9   2.0000      -9.909180      -269.6425
  10   2.0000      -9.908738      -269.6305
  11   2.0000      -6.299708      -171.4238
  12   2.0000      -4.521336      -123.0318
  13   2.0000      -4.520918      -123.0204
  14   2.0000      -4.517399      -122.9247
  15   2.0000      -0.772315       -21.0158
  16   2.0000      -0.704875       -19.1806
  17   2.0000      -0.675567       -18.3831
  18   2.0000      -0.670194       -18.2369
  19   2.0000      -0.666157       -18.1271
  20   2.0000      -0.585883       -15.9427
  21   2.0000      -0.544420       -14.8144
  22   2.0000      -0.537363       -14.6224
  23   2.0000      -0.534362       -14.5407
  24   2.0000      -0.486820       -13.2471
  25   2.0000      -0.451654       -12.2901
  26   2.0000      -0.410200       -11.1621
  27   2.0000      -0.398858       -10.8535
  28   2.0000      -0.397622       -10.8199
  29   2.0000      -0.391130       -10.6432
  30   2.0000      -0.389234       -10.5916
  31   2.0000      -0.374967       -10.2034
  32   2.0000      -0.359533        -9.7834
  33   2.0000      -0.352728        -9.5982
  34   2.0000      -0.331600        -9.0233
  35   2.0000      -0.330538        -8.9944
  36   2.0000      -0.320676        -8.7260
  37   2.0000      -0.311025        -8.4634
  38   2.0000      -0.305116        -8.3026
  39   2.0000      -0.299236        -8.1426
  40   2.0000      -0.273479        -7.4417
  41   2.0000      -0.272953        -7.4274
  42   2.0000      -0.233836        -6.3630
  43   2.0000      -0.229791        -6.2529
  44   2.0000      -0.197728        -5.3805
  45   0.0000      -0.055710        -1.5159
  46   0.0000      -0.045463        -1.2371
  47   0.0000       0.026149         0.7116
  48   0.0000       0.027262         0.7418
  49   0.0000       0.034198         0.9306

MULLIKEN ATOMIC CHARGES
-----------------------
   0 C :   -0.038837
   1 C :   -0.194545
   2 P :    0.153832
   3 C :   -0.189626
   4 C :   -0.040296
   5 C :   -0.132298
   6 C :   -0.002409
   7 C :    0.003077
   8 C :    0.001100
   9 C :   -0.000159
  10 C :    0.009402
  11 H :    0.035604
  12 H :    0.039197
  13 H :    0.047025
  14 H :    0.037820
  15 H :    0.052753
  16 H :    0.052331
  17 H :    0.038001
  18 H :    0.038474
  19 H :    0.035605
  20 H :    0.047783
  21 H :   -0.005020
  22 H :    0.001321
  23 H :    0.005397
  24 H :    0.004837
  25 H :   -0.000368
Sum of atomic charges:   -0.0000000

LOEWDIN ATOMIC CHARGES
----------------------
   0 C :   -0.083906
   1 C :   -0.189403
   2 P :    0.449007
   3 C :   -0.187125
   4 C :   -0.084183
   5 C :   -0.174196
   6 C :   -0.034244
   7 C :   -0.031763
   8 C :   -0.027945
   9 C :   -0.031651
  10 C :   -0.034799
  11 H :    0.030371
  12 H :    0.029794
  13 H :    0.030850
  14 H :    0.017990
  15 H :    0.029234
  16 H :    0.028269
  17 H :    0.018961
  18 H :    0.029301
  19 H :    0.030400
  20 H :    0.031192
  21 H :    0.025987
  22 H :    0.032331
  23 H :    0.032945
  24 H :    0.033290
  25 H :    0.029294

  Mayer bond orders larger than 0.100000
B(  0-C ,  1-C ) :   1.0887 B(  0-C , 11-H ) :   0.9622 B(  0-C , 12-H ) :   0.9642
B(  0-C , 13-H ) :   0.9667 B(  1-C ,  2-P ) :   0.9706 B(  1-C , 14-H ) :   0.9238
B(  1-C , 15-H ) :   0.9388 B(  2-P ,  3-C ) :   0.9693 B(  2-P ,  5-C ) :   0.9173
B(  3-C ,  4-C ) :   1.0880 B(  3-C , 16-H ) :   0.9399 B(  3-C , 17-H ) :   0.9254
B(  4-C , 18-H ) :   0.9645 B(  4-C , 19-H ) :   0.9619 B(  4-C , 20-H ) :   0.9673
B(  5-C ,  6-C ) :   1.3495 B(  5-C , 10-C ) :   1.3905 B(  6-C ,  7-C ) :   1.4111
B(  6-C , 21-H ) :   0.9664 B(  7-C ,  8-C ) :   1.3708 B(  7-C , 22-H ) :   0.9740
B(  8-C ,  9-C ) :   1.3901 B(  8-C , 23-H ) :   0.9755 B(  9-C , 10-C ) :   1.3790
B(  9-C , 24-H ) :   0.9767 B( 10-C , 25-H ) :   0.9742

Dispersion correction           -0.048530514
FINAL SINGLE POINT ENERGY      -731.141657750175

DIPOLE MOMENT
-------------

Method             : SCF
Type of density    : Electron Density
Multiplicity       :   1
Irrep              :   0
Energy             :  -731.0931272366168514 Eh
Relativity type    :
Basis              : AO
                                X                 Y                 Z
Electronic contribution:      4.913678727      -1.680652325       2.061912306
Nuclear contribution   :     -4.886168782       1.853946454      -2.507743658
                        -----------------------------------------
Total Dipole Moment    :      0.027509945       0.173294130      -0.445831351
                        -----------------------------------------
Magnitude (a.u.)       :      0.479117153
Magnitude (Debye)      :      1.217819022

Rotational constants in cm-1:             0.040493             0.024010             0.018918
Rotational constants in MHz :          1213.951112           719.815249           567.162356

                             ****ORCA TERMINATED NORMALLY****
TOTAL RUN TIME: 0 days 0 hours 1 minutes 30 seconds 757 msec
