                         Program Version 6.0.0  -   RELEASE   -
|  1> ! RIJCOSX M062X def2-TZVP D3ZERO NormalSCF
|  2> %pal
|  3> nprocs 6
|  4> end
|  5>
|  6> * xyz 0 1
|  7>   C           2.54821663805698     -1.27959381919140     -0.12543921796255
|  8>   C           1.64172471238014     -0.03209889922651     -0.18807119824290
|  9>   P           0.00440753187087     -0.30229144102498      0.69265947975575
| 10>   C          -0.73152843748494      1.40969206365340      0.45241574620992
| 11>   C          -0.21014708179887      2.41836097621742      1.49763855399584
| 12>   C          -0.83953612976621      3.73468351722640      1.36410689773432
| 13>   N          -1.35850282898693      4.77652982498334      1.23457198179167
| 14>   C          -0.91189320127504     -1.19887344893877     -0.68110223280386
| 15>   C          -2.33104577980379     -1.62614621827874     -0.25029110807151
| 16>   C          -3.02285713491442     -2.39007841582867     -1.29163793781183
| 17>   N          -3.55196550852293     -2.99787877045948     -2.14145193734078
| 18>   C           3.85650692332132     -1.04920555650798     -0.74347466572292
| 19>   N           4.89391585370154     -0.83726261131844     -1.24388484335693
| 20>   H           2.70272192682762     -1.59208283285066      0.92989125735143
| 21>   H           2.07319607210327     -2.14363066470414     -0.63835880405388
| 22>   H           1.47611022741149      0.27749970357587     -1.24223296338261
| 23>   H           2.15143438439077      0.81292969911597      0.32017617615441
| 24>   H          -0.53861766816184      1.77878355445947     -0.57754388085726
| 25>   H          -1.83193844492036      1.31113731216051      0.55966515470737
| 26>   H           0.88949496254305      2.55237083710571      1.40798952022756
| 27>   H          -0.39355902001771      2.03840982816777      2.52586896258262
| 28>   H          -0.32070595739610     -2.10378697967186     -0.93370681626776
| 29>   H          -0.95507213100444     -0.57438402396191     -1.59910774670397
| 30>   H          -2.95494440548229     -0.74051283014714     -0.00202276872107
| 31>   H          -2.28541450307120     -2.24257380455519      0.67334239078895
| 32> **                         ****END OF INPUT****

CARTESIAN COORDINATES (ANGSTROEM)
---------------------------------
  C      2.548217   -1.279594   -0.125439
  C      1.641725   -0.032099   -0.188071
  P      0.004408   -0.302291    0.692659
  C     -0.731528    1.409692    0.452416
  C     -0.210147    2.418361    1.497639
  C     -0.839536    3.734684    1.364107
  N     -1.358503    4.776530    1.234572
  C     -0.911893   -1.198873   -0.681102
  C     -2.331046   -1.626146   -0.250291
  C     -3.022857   -2.390078   -1.291638
  N     -3.551966   -2.997879   -2.141452
  C      3.856507   -1.049206   -0.743475
  N      4.893916   -0.837263   -1.243885
  H      2.702722   -1.592083    0.929891
  H      2.073196   -2.143631   -0.638359
  H      1.476110    0.277500   -1.242233
  H      2.151434    0.812930    0.320176
  H     -0.538618    1.778784   -0.577544
  H     -1.831938    1.311137    0.559665
  H      0.889495    2.552371    1.407990
  H     -0.393559    2.038410    2.525869
  H     -0.320706   -2.103787   -0.933707
  H     -0.955072   -0.574384   -1.599108
  H     -2.954944   -0.740513   -0.002023
  H     -2.285415   -2.242574    0.673342

 Total Charge           Charge          ....    0
 Multiplicity           Mult            ....    1
 Number of Electrons    NEL             ....  102
 Basis Dimension        Dim             ....  481

ORBITAL ENERGIES
----------------

  NO   OCC          E(Eh)            E(eV)
   0   2.0000     -78.071467     -2124.4326
   1   2.0000     -14.771587      -401.9553
   2   2.0000     -14.771564      -401.9547
   3   2.0000     -14.771540      -401.9540
   4   2.0000     -10.621032      -289.0130
   5   2.0000     -10.621020      -289.0126
   6   2.0000     -10.621020      -289.0126
   7   2.0000     -10.598163      -288.3907
   8   2.0000     -10.598154      -288.3904
   9   2.0000     -10.598147      -288.3902
  10   2.0000     -10.597767      -288.3799
  11   2.0000     -10.597758      -288.3797
  12   2.0000     -10.597738      -288.3791
  13   2.0000      -6.887558      -187.4200
  14   2.0000      -5.001972      -136.1106
  15   2.0000      -5.001653      -136.1019
  16   2.0000      -5.001648      -136.1018
  17   2.0000      -1.025329       -27.9006
  18   2.0000      -1.024946       -27.8902
  19   2.0000      -1.024935       -27.8899
  20   2.0000      -0.948103       -25.7992
  21   2.0000      -0.924473       -25.1562
  22   2.0000      -0.924456       -25.1557
  23   2.0000      -0.831935       -22.6381
  24   2.0000      -0.773348       -21.0439
  25   2.0000      -0.773341       -21.0437
  26   2.0000      -0.658449       -17.9173
  27   2.0000      -0.619634       -16.8611
  28   2.0000      -0.619587       -16.8598
  29   2.0000      -0.597616       -16.2620
  30   2.0000      -0.585364       -15.9286
  31   2.0000      -0.585331       -15.9277
  32   2.0000      -0.582298       -15.8451
  33   2.0000      -0.519664       -14.1408
  34   2.0000      -0.516442       -14.0531
  35   2.0000      -0.516424       -14.0526
  36   2.0000      -0.490107       -13.3365
  37   2.0000      -0.481701       -13.1077
  38   2.0000      -0.481646       -13.1063
  39   2.0000      -0.462561       -12.5869
  40   2.0000      -0.462526       -12.5860
  41   2.0000      -0.456366       -12.4184
  42   2.0000      -0.430073       -11.7029
  43   2.0000      -0.430034       -11.7018
  44   2.0000      -0.410818       -11.1789
  45   2.0000      -0.407339       -11.0843
  46   2.0000      -0.405358       -11.0303
  47   2.0000      -0.405354       -11.0302
  48   2.0000      -0.397416       -10.8142
  49   2.0000      -0.397400       -10.8138
  50   2.0000      -0.331548        -9.0219
  51   0.0000       0.005028         0.1368
  52   0.0000       0.005036         0.1370
  53   0.0000       0.020252         0.5511
  54   0.0000       0.039938         1.0868
  55   0.0000       0.039948         1.0870

MULLIKEN ATOMIC CHARGES
-----------------------
   0 C :   -0.244629
   1 C :   -0.429586
   2 P :    0.243319
   3 C :   -0.430329
   4 C :   -0.244667
   5 C :   -0.150219
   6 N :   -0.002408
   7 C :   -0.429581
   8 C :   -0.244614
   9 C :   -0.149909
  10 N :   -0.002267
  11 C :   -0.149804
  12 N :   -0.002377
  13 H :    0.190537
  14 H :    0.179020
  15 H :    0.193004
  16 H :    0.182668
  17 H :    0.193102
  18 H :    0.182942
  19 H :    0.179312
  20 H :    0.190805
  21 H :    0.182853
  22 H :    0.193080
  23 H :    0.179207
  24 H :    0.190541
Sum of atomic charges:   -0.0000000

LOEWDIN ATOMIC CHARGES
----------------------
   0 C :   -0.274557
   1 C :   -0.392942
   2 P :    0.567413
   3 C :   -0.392868
   4 C :   -0.274606
   5 C :   -0.197220
   6 N :    0.054827
   7 C :   -0.392843
   8 C :   -0.274557
   9 C :   -0.197210
  10 N :    0.054795
  11 C :   -0.197204
  12 N :    0.054785
  13 H :    0.169497
  14 H :    0.165622
  15 H :    0.141319
  16 H :    0.144288
  17 H :    0.141299
  18 H :    0.144272
  19 H :    0.165664
  20 H :    0.169540
  21 H :    0.144232
  22 H :    0.141345
  23 H :    0.165613
  24 H :    0.169497

  Mayer bond orders larger than 0.100000
B(  0-C ,  1-C ) :   0.9166 B(  0-C , 11-C ) :   0.9763 B(  0-C , 13-H ) :   0.9472
B(  0-C , 14-H ) :   0.9511 B(  1-C ,  2-P ) :   0.9556 B(  1-C , 15-H ) :   0.9484
B(  1-C , 16-H ) :   0.9501 B(  2-P ,  3-C ) :   0.9554 B(  2-P ,  7-C ) :   0.9557
B(  3-C ,  4-C ) :   0.9161 B(  3-C , 17-H ) :   0.9483 B(  3-C , 18-H ) :   0.9501
B(  4-C ,  5-C ) :   0.9767 B(  4-C , 19-H ) :   0.9509 B(  4-C , 20-H ) :   0.9471
B(  5-C ,  6-N ) :   3.0426 B(  7-C ,  8-C ) :   0.9156 B(  7-C , 21-H ) :   0.9500
B(  7-C , 22-H ) :   0.9487 B(  8-C ,  9-C ) :   0.9773 B(  8-C , 23-H ) :   0.9510
B(  8-C , 24-H ) :   0.9470 B(  9-C , 10-N ) :   3.0424 B( 11-C , 12-N ) :   3.0425

Dispersion correction           -0.001067921
FINAL SINGLE POINT ENERGY      -855.711723315116

DIPOLE MOMENT
-------------

Method             : SCF
Type of density    : Electron Density
Multiplicity       :   1
Irrep              :   0
Energy             :  -855.7106553939449896 Eh
Relativity type    :
Basis              : AO
                                X                 Y                 Z
Electronic contribution:     -0.001992968      -0.122977102       0.295134014
Nuclear contribution   :      0.012686297      -0.474834718       1.071986102
                        -----------------------------------------
Total Dipole Moment    :      0.010693328      -0.597811820       1.367120116
                        -----------------------------------------
Magnitude (a.u.)       :      1.492149701
Magnitude (Debye)      :      3.792743126

Rotational constants in cm-1:             0.014953             0.014924             0.007917
Rotational constants in MHz :           448.266234           447.398039           237.337926

                             ****ORCA TERMINATED NORMALLY****
TOTAL RUN TIME: 0 days 0 hours 0 minutes 43 seconds 883 msec
