                         Program Version 6.0.0  -   RELEASE   -
|  1> ! RIJONX B3LYP def2-SVP D3BJ TIGHTSCF Opt
|  2> %pal
|  3> nprocs 6
|  4> end
|  5>
|  6> * xyz 0 1
|  7> C     -2.022785   -3.131530    0.450272
|  8> C     -2.577902   -2.139038    1.220651
|  9> O     -2.151621   -0.920613    0.803259
| 10> C     -1.292239   -1.123078   -0.238889
| 11> C     -1.200504   -2.476163   -0.498883
| 12> P     -0.461086    0.207899   -1.182809
| 13> C      1.304306   -0.271761   -1.101444
| 14> C      2.378981    0.555500   -1.361374
| 15> C      3.546824   -0.231993   -1.211236
| 16> C      3.113879   -1.493994   -0.884748
| 17> O      1.758896   -1.530477   -0.828340
| 18> C     -0.551128    1.637896   -0.042501
| 19> C     -1.704095    2.157662    0.511900
| 20> C     -1.314272    3.268942    1.299072
| 21> C      0.049028    3.369255    1.164798
| 22> O      0.517618    2.394774    0.345468
| 23> H     -2.188672   -4.193883    0.557983
| 24> H     -3.260715   -2.133182    2.058589
| 25> H     -0.603195   -2.939074   -1.272796
| 26> H      2.330000    1.605274   -1.617467
| 27> H      4.574207    0.082441   -1.326692
| 28> H      3.615480   -2.427945   -0.673706
| 29> H     -2.706924    1.775733    0.375987
| 30> H     -1.948595    3.914433    1.889572
| 31> H      0.794513    4.042924    1.563334
| 32> **                         ****END OF INPUT****
 Total Charge           Charge          ....    0
 Multiplicity           Mult            ....    1
 Number of Electrons    NEL             ....  120
Dispersion correction           -0.053602770
FINAL SINGLE POINT ENERGY     -1028.630503356633
Dispersion correction             ... done (  0.1 sec)
Dispersion correction           -0.053805025
FINAL SINGLE POINT ENERGY     -1028.634281303884
Dispersion correction             ... done (  0.1 sec)
Dispersion correction           -0.053843126
FINAL SINGLE POINT ENERGY     -1028.635995784200
Dispersion correction             ... done (  0.1 sec)
FINAL SINGLE POINT ENERGY     -1028.636900674345
FINAL SINGLE POINT ENERGY     -1028.638275384993
FINAL SINGLE POINT ENERGY     -1028.640716022167
FINAL SINGLE POINT ENERGY     -1028.643116462537
FINAL SINGLE POINT ENERGY     -1028.645485407710
FINAL SINGLE POINT ENERGY     -1028.646206912672
FINAL SINGLE POINT ENERGY     -1028.646478174399
FINAL SINGLE POINT ENERGY     -1028.646580050623
FINAL SINGLE POINT ENERGY     -1028.646627702000
FINAL SINGLE POINT ENERGY     -1028.646640721389
Dispersion correction             ... done (  0.1 sec)
Dispersion correction           -0.052626644
FINAL SINGLE POINT ENERGY     -1028.646644486320
Dispersion correction             ... done (  0.1 sec)
Dispersion correction           -0.052624076
FINAL SINGLE POINT ENERGY     -1028.646645321427
Dispersion correction             ... done (  0.1 sec)
                    ***********************HURRAY********************

CARTESIAN COORDINATES (ANGSTROEM)
---------------------------------
  C     -2.224330   -3.098411    0.322184
  C     -1.399583   -2.670031    1.326510
  O     -0.736282   -1.553216    0.954407
  C     -1.128564   -1.236903   -0.317722
  C     -2.047636   -2.164052   -0.748754
  P     -0.467788    0.210500   -1.199108
  C      1.325916   -0.061143   -1.067700
  C      2.274539   -0.055750   -2.062808
  C      3.533509   -0.321495   -1.433977
  C      3.257552   -0.469912   -0.102000
  O      1.935479   -0.315769    0.130595
  C     -0.732434    1.538301    0.015502
  C     -1.379969    2.740120   -0.147139
  C     -1.308924    3.420497    1.111074
  C     -0.621970    2.582287    1.946482
  O     -0.270541    1.448826    1.300401
  H     -2.876063   -3.969435    0.343184
  H     -1.187280   -3.043656    2.325574
  H     -2.535681   -2.169046   -1.721292
  H      2.084280    0.119095   -3.119815
  H      4.510574   -0.393324   -1.907338
  H      3.876322   -0.680139    0.767325
  H     -1.849947    3.088632   -1.064583
  H     -1.712578    4.399619    1.360612
  H     -0.318601    2.654407    2.988384

 Multiplicity           Mult            ....    1
 Number of Electrons    NEL             ....  120
 Basis Dimension        Dim             ....  273

ORBITAL ENERGIES
----------------

  NO   OCC          E(Eh)            E(eV)
   0   2.0000     -77.066756     -2097.0931
   1   2.0000     -19.194484      -522.3085
   2   2.0000     -19.194481      -522.3084
   3   2.0000     -19.194477      -522.3083
   4   2.0000     -10.235892      -278.5328
   5   2.0000     -10.235881      -278.5325
   6   2.0000     -10.235870      -278.5322
   7   2.0000     -10.227985      -278.3176
   8   2.0000     -10.227980      -278.3175
   9   2.0000     -10.227893      -278.3151
  10   2.0000     -10.187842      -277.2253
  11   2.0000     -10.187836      -277.2251
  12   2.0000     -10.187827      -277.2249
  13   2.0000     -10.184942      -277.1464
  14   2.0000     -10.184937      -277.1462
  15   2.0000     -10.184930      -277.1460
  16   2.0000      -6.562333      -178.5701
  17   2.0000      -4.727707      -128.6475
  18   2.0000      -4.727706      -128.6474
  19   2.0000      -4.725094      -128.5763
  20   2.0000      -1.099704       -29.9245
  21   2.0000      -1.096100       -29.8264
  22   2.0000      -1.096090       -29.8261
  23   2.0000      -0.790341       -21.5063
  24   2.0000      -0.787592       -21.4315
  25   2.0000      -0.787587       -21.4313
  26   2.0000      -0.770127       -20.9562
  27   2.0000      -0.731191       -19.8967
  28   2.0000      -0.731184       -19.8965
  29   2.0000      -0.643291       -17.5048
  30   2.0000      -0.598517       -16.2865
  31   2.0000      -0.592441       -16.1212
  32   2.0000      -0.592436       -16.1210
  33   2.0000      -0.551897       -15.0179
  34   2.0000      -0.551892       -15.0177
  35   2.0000      -0.543626       -14.7928
  36   2.0000      -0.528004       -14.3677
  37   2.0000      -0.528000       -14.3676
  38   2.0000      -0.488814       -13.3013
  39   2.0000      -0.456474       -12.4213
  40   2.0000      -0.456462       -12.4210
  41   2.0000      -0.441182       -12.0052
  42   2.0000      -0.433029       -11.7833
  43   2.0000      -0.433025       -11.7832
  44   2.0000      -0.417771       -11.3681
  45   2.0000      -0.402681       -10.9575
  46   2.0000      -0.402676       -10.9574
  47   2.0000      -0.401979       -10.9384
  48   2.0000      -0.383090       -10.4244
  49   2.0000      -0.383084       -10.4243
  50   2.0000      -0.377319       -10.2674
  51   2.0000      -0.352201        -9.5839
  52   2.0000      -0.352190        -9.5836
  53   2.0000      -0.281171        -7.6511
  54   2.0000      -0.281165        -7.6509
  55   2.0000      -0.277469        -7.5503
  56   2.0000      -0.259748        -7.0681
  57   2.0000      -0.238519        -6.4904
  58   2.0000      -0.238506        -6.4901
  59   2.0000      -0.220358        -5.9962
  60   0.0000      -0.015818        -0.4304
  61   0.0000      -0.015801        -0.4300
  62   0.0000       0.023471         0.6387
  63   0.0000       0.057539         1.5657
  64   0.0000       0.057545         1.5659

MULLIKEN ATOMIC CHARGES
-----------------------
   0 C :   -0.020323
   1 C :    0.135271
   2 O :   -0.196795
   3 C :    0.007983
   4 C :   -0.037451
   5 P :    0.332693
   6 C :    0.007955
   7 C :   -0.037421
   8 C :   -0.020305
   9 C :    0.135270
  10 O :   -0.196805
  11 C :    0.007987
  12 C :   -0.037486
  13 C :   -0.020291
  14 C :    0.135229
  15 O :   -0.196764
  16 H :   -0.003395
  17 H :    0.011465
  18 H :   -0.007639
  19 H :   -0.007643
  20 H :   -0.003401
  21 H :    0.011457
  22 H :   -0.007647
  23 H :   -0.003395
  24 H :    0.011453
Sum of atomic charges:   -0.0000000

LOEWDIN ATOMIC CHARGES
----------------------
   0 C :   -0.082356
   1 C :    0.041520
   2 O :    0.003832
   3 C :   -0.141221
   4 C :   -0.067727
   5 P :    0.485667
   6 C :   -0.141210
   7 C :   -0.067722
   8 C :   -0.082360
   9 C :    0.041521
  10 O :    0.003813
  11 C :   -0.141217
  12 C :   -0.067719
  13 C :   -0.082359
  14 C :    0.041508
  15 O :    0.003835
  16 H :    0.030241
  17 H :    0.023211
  18 H :    0.030614
  19 H :    0.030612
  20 H :    0.030242
  21 H :    0.023209
  22 H :    0.030616
  23 H :    0.030241
  24 H :    0.023208

  Mayer bond orders larger than 0.100000
B(  0-C ,  1-C ) :   1.5369 B(  0-C ,  4-C ) :   1.2208 B(  0-C , 16-H ) :   1.0000
B(  1-C ,  2-O ) :   1.1588 B(  1-C ,  3-C ) :   0.1002 B(  1-C , 17-H ) :   0.9997
B(  2-O ,  3-C ) :   1.0977 B(  3-C ,  4-C ) :   1.5755 B(  3-C ,  5-P ) :   0.9214
B(  4-C , 18-H ) :   1.0070 B(  5-P ,  6-C ) :   0.9215 B(  5-P , 11-C ) :   0.9214
B(  6-C ,  7-C ) :   1.5755 B(  6-C ,  9-C ) :   0.1002 B(  6-C , 10-O ) :   1.0977
B(  7-C ,  8-C ) :   1.2208 B(  7-C , 19-H ) :   1.0071 B(  8-C ,  9-C ) :   1.5369
B(  8-C , 20-H ) :   1.0000 B(  9-C , 10-O ) :   1.1588 B(  9-C , 21-H ) :   0.9997
B( 11-C , 12-C ) :   1.5755 B( 11-C , 14-C ) :   0.1002 B( 11-C , 15-O ) :   1.0977
B( 12-C , 13-C ) :   1.2208 B( 12-C , 22-H ) :   1.0071 B( 13-C , 14-C ) :   1.5369
B( 13-C , 23-H ) :   1.0000 B( 14-C , 15-O ) :   1.1588 B( 14-C , 24-H ) :   0.9997

Dispersion correction           -0.052622744
FINAL SINGLE POINT ENERGY     -1028.646645599597

DIPOLE MOMENT
-------------

Method             : SCF
Type of density    : Electron Density
Multiplicity       :   1
Irrep              :   0
Energy             : -1028.5940228559036314 Eh
Relativity type    :
Basis              : AO
                                X                 Y                 Z
Electronic contribution:     -0.509028797       0.226366112      -1.298494140
Nuclear contribution   :      0.589069003      -0.262070262       1.503007172
                        -----------------------------------------
Total Dipole Moment    :      0.080040206      -0.035704150       0.204513032
                        -----------------------------------------
Magnitude (a.u.)       :      0.222501239
Magnitude (Debye)      :      0.565553204

Rotational constants in cm-1:             0.017041             0.017033             0.010873
Rotational constants in MHz :           510.877638           510.638602           325.964018

                             ****ORCA TERMINATED NORMALLY****
TOTAL RUN TIME: 0 days 0 hours 7 minutes 45 seconds 596 msec
