                         Program Version 6.0.0  -   RELEASE   -
|  1> ! RI BP86 def2-SVP D3BJ TIGHTSCF Opt
|  2> %pal
|  3> nprocs 6
|  4> end
|  5>
|  6> * xyz 0 1
|  7> C      4.586660   -1.223055    0.850284
|  8> N      3.307638   -0.557506    0.587904
|  9> C      3.190267    0.635078    1.431106
| 10> C      3.193232   -0.233499   -0.843983
| 11> C      1.814418    0.291121   -1.272147
| 12> C      0.682804   -0.682737   -0.928467
| 13> P     -0.955876   -0.103563   -1.574306
| 14> C     -2.153549   -1.282760   -0.850162
| 15> C     -3.497273   -0.897906   -0.697293
| 16> C     -4.446929   -1.775166   -0.165727
| 17> C     -4.072818   -3.060871    0.210774
| 18> C     -2.752331   -3.469397    0.048795
| 19> C     -1.802929   -2.589869   -0.483088
| 20> C     -1.237388    1.382231   -0.548916
| 21> C     -1.434751    2.615051   -1.188411
| 22> C     -1.643134    3.780188   -0.445797
| 23> C     -1.656624    3.727660    0.945883
| 24> C     -1.462602    2.511116    1.595465
| 25> C     -1.253826    1.346103    0.853059
| 26> H      4.661925   -1.511676    1.904731
| 27> H      4.666385   -2.148338    0.268734
| 28> H      5.443181   -0.584825    0.604365
| 29> H      2.196345    1.085266    1.346747
| 30> H      3.940058    1.393966    1.180198
| 31> H      3.311173    0.370918    2.488072
| 32> H      3.389899   -1.140712   -1.430726
| 33> H      3.958280    0.498158   -1.135699
| 34> H      1.840293    0.457608   -2.357433
| 35> H      1.634588    1.274776   -0.823335
| 36> H      0.908553   -1.650700   -1.390037
| 37> H      0.628758   -0.840759    0.153515
| 38> H     -3.822126    0.098884   -0.990570
| 39> H     -5.477644   -1.450771   -0.050604
| 40> H     -4.809526   -3.745018    0.622696
| 41> H     -2.457005   -4.476516    0.331534
| 42> H     -0.787874   -2.955993   -0.605893
| 43> H     -1.428166    2.680020   -2.274526
| 44> H     -1.795557    4.727453   -0.956190
| 45> H     -1.820452    4.633323    1.523651
| 46> H     -1.476078    2.464856    2.681168
| 47> H     -1.110002    0.407861    1.384630
| 48> **                         ****END OF INPUT****
 Total Charge           Charge          ....    0
 Multiplicity           Mult            ....    1
 Number of Electrons    NEL             ....  146
Dispersion correction           -0.084390741
FINAL SINGLE POINT ENERGY     -1056.630108761590
Dispersion correction             ... done (  0.1 sec)
Dispersion correction           -0.085157121
FINAL SINGLE POINT ENERGY     -1056.637057306877
Dispersion correction             ... done (  0.1 sec)
Dispersion correction           -0.086259117
FINAL SINGLE POINT ENERGY     -1056.638245966636
Dispersion correction             ... done (  0.1 sec)
FINAL SINGLE POINT ENERGY     -1056.638639267128
FINAL SINGLE POINT ENERGY     -1056.638857581429
FINAL SINGLE POINT ENERGY     -1056.638990888836
FINAL SINGLE POINT ENERGY     -1056.639105425782
FINAL SINGLE POINT ENERGY     -1056.639287875165
FINAL SINGLE POINT ENERGY     -1056.639337051556
FINAL SINGLE POINT ENERGY     -1056.639357880759
Dispersion correction             ... done (  0.1 sec)
Dispersion correction           -0.088292855
FINAL SINGLE POINT ENERGY     -1056.639364530997
Dispersion correction             ... done (  0.1 sec)
Dispersion correction           -0.088290715
FINAL SINGLE POINT ENERGY     -1056.639366838228
Dispersion correction             ... done (  0.1 sec)
                    ***********************HURRAY********************

CARTESIAN COORDINATES (ANGSTROEM)
---------------------------------
  C      3.999434   -0.690362    1.181690
  N      2.884490   -0.099831    0.463650
  C      2.587763    1.245555    0.930264
  C      3.052189   -0.185792   -0.984614
  C      1.755755    0.102496   -1.755245
  C      0.620796   -0.847676   -1.344389
  P     -1.068957   -0.130117   -1.725386
  C     -2.191025   -1.341848   -0.891598
  C     -3.567595   -1.018665   -0.850425
  C     -4.492015   -1.885606   -0.252335
  C     -4.060438   -3.105601    0.299563
  C     -2.699281   -3.443894    0.252533
  C     -1.769243   -2.567386   -0.334259
  C     -1.052340    1.215333   -0.441285
  C     -0.823671    2.540435   -0.868655
  C     -0.705653    3.583885    0.066093
  C     -0.833957    3.314385    1.438273
  C     -1.078374    1.998854    1.872347
  C     -1.183189    0.955912    0.940126
  H      3.792366   -0.691765    2.271835
  H      4.146542   -1.742159    0.860459
  H      4.972340   -0.148008    1.024317
  H      1.657887    1.631106    0.469649
  H      3.412586    1.977999    0.711324
  H      2.426387    1.234067    2.026789
  H      3.392230   -1.218234   -1.218908
  H      3.862713    0.503832   -1.351691
  H      1.956734    0.030784   -2.844229
  H      1.457471    1.157644   -1.576298
  H      0.711347   -1.817485   -1.879257
  H      0.705456   -1.049624   -0.254683
  H     -3.912512   -0.067993   -1.289155
  H     -5.558142   -1.612068   -0.221539
  H     -4.786284   -3.791230    0.763024
  H     -2.352467   -4.396644    0.682305
  H     -0.705533   -2.845444   -0.346967
  H     -0.737281    2.751836   -1.946742
  H     -0.520173    4.612409   -0.280273
  H     -0.747758    4.130752    2.171790
  H     -1.182271    1.783920    2.947311
  H     -1.366329   -0.073773    1.284590

 Multiplicity           Mult            ....    1
 Number of Electrons    NEL             ....  146
 Basis Dimension        Dim             ....  380

ORBITAL ENERGIES
----------------

  NO   OCC          E(Eh)            E(eV)
   0   2.0000     -76.337919     -2077.2604
   1   2.0000     -14.005350      -381.1050
   2   2.0000      -9.935627      -270.3621
   3   2.0000      -9.932033      -270.2643
   4   2.0000      -9.925946      -270.0987
   5   2.0000      -9.924164      -270.0502
   6   2.0000      -9.924029      -270.0466
   7   2.0000      -9.923824      -270.0410
   8   2.0000      -9.923646      -270.0361
   9   2.0000      -9.922773      -270.0124
  10   2.0000      -9.922623      -270.0083
  11   2.0000      -9.921613      -269.9808
  12   2.0000      -9.920625      -269.9539
  13   2.0000      -9.920280      -269.9446
  14   2.0000      -9.920061      -269.9386
  15   2.0000      -9.919813      -269.9318
  16   2.0000      -9.919578      -269.9254
  17   2.0000      -9.914497      -269.7872
  18   2.0000      -9.912459      -269.7317
  19   2.0000      -6.306820      -171.6173
  20   2.0000      -4.528459      -123.2256
  21   2.0000      -4.528042      -123.2143
  22   2.0000      -4.524602      -123.1207
  23   2.0000      -0.835600       -22.7378
  24   2.0000      -0.774722       -21.0813
  25   2.0000      -0.768465       -20.9110
  26   2.0000      -0.710257       -19.3271
  27   2.0000      -0.682935       -18.5836
  28   2.0000      -0.670705       -18.2508
  29   2.0000      -0.667830       -18.1726
  30   2.0000      -0.664748       -18.0887
  31   2.0000      -0.628817       -17.1110
  32   2.0000      -0.625140       -17.0109
  33   2.0000      -0.574441       -15.6313
  34   2.0000      -0.549446       -14.9512
  35   2.0000      -0.542565       -14.7639
  36   2.0000      -0.535341       -14.5674
  37   2.0000      -0.532817       -14.4987
  38   2.0000      -0.502696       -13.6790
  39   2.0000      -0.491735       -13.3808
  40   2.0000      -0.463449       -12.6111
  41   2.0000      -0.447263       -12.1706
  42   2.0000      -0.436079       -11.8663
  43   2.0000      -0.418253       -11.3812
  44   2.0000      -0.411678       -11.2023
  45   2.0000      -0.406124       -11.0512
  46   2.0000      -0.403489       -10.9795
  47   2.0000      -0.400164       -10.8890
  48   2.0000      -0.393558       -10.7093
  49   2.0000      -0.383316       -10.4306
  50   2.0000      -0.375930       -10.2296
  51   2.0000      -0.374788       -10.1985
  52   2.0000      -0.367461        -9.9991
  53   2.0000      -0.361437        -9.8352
  54   2.0000      -0.350585        -9.5399
  55   2.0000      -0.342662        -9.3243
  56   2.0000      -0.332913        -9.0590
  57   2.0000      -0.328620        -8.9422
  58   2.0000      -0.326283        -8.8786
  59   2.0000      -0.320839        -8.7305
  60   2.0000      -0.314575        -8.5600
  61   2.0000      -0.305375        -8.3097
  62   2.0000      -0.303587        -8.2610
  63   2.0000      -0.302574        -8.2335
  64   2.0000      -0.295475        -8.0403
  65   2.0000      -0.281259        -7.6534
  66   2.0000      -0.274809        -7.4779
  67   2.0000      -0.240449        -6.5430
  68   2.0000      -0.234987        -6.3943
  69   2.0000      -0.233578        -6.3560
  70   2.0000      -0.229936        -6.2569
  71   2.0000      -0.194382        -5.2894
  72   2.0000      -0.173691        -4.7264
  73   0.0000      -0.056387        -1.5344
  74   0.0000      -0.049810        -1.3554
  75   0.0000      -0.047845        -1.3019
  76   0.0000      -0.039137        -1.0650
  77   0.0000       0.025467         0.6930

MULLIKEN ATOMIC CHARGES
-----------------------
   0 C :    0.069211
   1 N :   -0.333798
   2 C :    0.064863
   3 C :    0.088591
   4 C :    0.016062
   5 C :   -0.187926
   6 P :    0.219059
   7 C :   -0.135286
   8 C :    0.012791
   9 C :   -0.000670
  10 C :    0.000786
  11 C :    0.005108
  12 C :   -0.018867
  13 C :   -0.151338
  14 C :    0.011510
  15 C :   -0.005839
  16 C :    0.001013
  17 C :    0.002751
  18 C :    0.027029
  19 H :    0.028582
  20 H :    0.027968
  21 H :   -0.005924
  22 H :    0.051217
  23 H :   -0.008539
  24 H :    0.026294
  25 H :    0.008739
  26 H :   -0.008214
  27 H :    0.023202
  28 H :    0.019208
  29 H :    0.057134
  30 H :    0.060000
  31 H :    0.002614
  32 H :    0.003606
  33 H :    0.002873
  34 H :    0.000066
  35 H :   -0.001747
  36 H :    0.002341
  37 H :    0.004286
  38 H :    0.004792
  39 H :    0.002974
  40 H :    0.013478
Sum of atomic charges:   -0.0000000

LOEWDIN ATOMIC CHARGES
----------------------
   0 C :   -0.002691
   1 N :   -0.116419
   2 C :   -0.002160
   3 C :    0.018332
   4 C :   -0.060241
   5 C :   -0.181813
   6 P :    0.478511
   7 C :   -0.173361
   8 C :   -0.032373
   9 C :   -0.030626
  10 C :   -0.033207
  11 C :   -0.031351
  12 C :   -0.046010
  13 C :   -0.168997
  14 C :   -0.042349
  15 C :   -0.034557
  16 C :   -0.030321
  17 C :   -0.030736
  18 C :   -0.026284
  19 H :    0.023644
  20 H :    0.023071
  21 H :   -0.001154
  22 H :    0.027275
  23 H :   -0.000576
  24 H :    0.025081
  25 H :    0.021315
  26 H :    0.001721
  27 H :    0.032738
  28 H :    0.023139
  29 H :    0.027825
  30 H :    0.021461
  31 H :    0.030849
  32 H :    0.033142
  33 H :    0.032110
  34 H :    0.032138
  35 H :    0.029650
  36 H :    0.028753
  37 H :    0.033337
  38 H :    0.032880
  39 H :    0.033078
  40 H :    0.035178

  Mayer bond orders larger than 0.100000
B(  0-C ,  1-N ) :   1.0403 B(  0-C , 19-H ) :   0.9669 B(  0-C , 20-H ) :   0.9660
B(  0-C , 21-H ) :   0.9366 B(  1-N ,  2-C ) :   1.0241 B(  1-N ,  3-C ) :   1.0296
B(  2-C , 22-H ) :   0.9608 B(  2-C , 23-H ) :   0.9336 B(  2-C , 24-H ) :   0.9639
B(  3-C ,  4-C ) :   1.0858 B(  3-C , 25-H ) :   0.9350 B(  3-C , 26-H ) :   0.9109
B(  4-C ,  5-C ) :   1.0485 B(  4-C , 27-H ) :   0.9247 B(  4-C , 28-H ) :   0.9243
B(  5-C ,  6-P ) :   0.9805 B(  5-C , 29-H ) :   0.9291 B(  5-C , 30-H ) :   0.9019
B(  6-P ,  7-C ) :   0.9199 B(  6-P , 13-C ) :   0.9332 B(  7-C ,  8-C ) :   1.3605
B(  7-C , 12-C ) :   1.3811 B(  8-C ,  9-C ) :   1.4171 B(  8-C , 31-H ) :   0.9703
B(  9-C , 10-C ) :   1.3669 B(  9-C , 32-H ) :   0.9756 B( 10-C , 11-C ) :   1.3897
B( 10-C , 33-H ) :   0.9757 B( 11-C , 12-C ) :   1.3773 B( 11-C , 34-H ) :   0.9733
B( 12-C , 35-H ) :   0.9666 B( 13-C , 14-C ) :   1.3768 B( 13-C , 18-C ) :   1.3732
B( 14-C , 15-C ) :   1.3815 B( 14-C , 36-H ) :   0.9679 B( 15-C , 16-C ) :   1.3852
B( 15-C , 37-H ) :   0.9770 B( 16-C , 17-C ) :   1.3657 B( 16-C , 38-H ) :   0.9764
B( 17-C , 18-C ) :   1.3968 B( 17-C , 39-H ) :   0.9747 B( 18-C , 40-H ) :   0.9640

Dispersion correction           -0.088298911
FINAL SINGLE POINT ENERGY     -1056.639367516040

DIPOLE MOMENT
-------------

Method             : SCF
Type of density    : Electron Density
Multiplicity       :   1
Irrep              :   0
Energy             : -1056.5510686047539366 Eh
Relativity type    :
Basis              : AO
                                X                 Y                 Z
Electronic contribution:    -20.163743807      -0.895155866      -6.822945878
Nuclear contribution   :     20.506090282       0.935772012       7.343063780
                        -----------------------------------------
Total Dipole Moment    :      0.342346475       0.040616146       0.520117901
                        -----------------------------------------
Magnitude (a.u.)       :      0.623997926
Magnitude (Debye)      :      1.586076680

Rotational constants in cm-1:             0.014740             0.008141             0.006544
Rotational constants in MHz :           441.879531           244.054617           196.186732

                             ****ORCA TERMINATED NORMALLY****
TOTAL RUN TIME: 0 days 0 hours 3 minutes 43 seconds 860 msec
