                         Program Version 6.0.0  -   RELEASE   -
|  1> ! RI BP86 def2-SVP D3BJ TIGHTSCF Opt
|  2> %pal
|  3> nprocs 6
|  4> end
|  5>
|  6> * xyz 0 1
|  7> C      5.165614    0.280653    1.488186
|  8> C      3.794521    0.146094    0.894815
|  9> C      3.571326    0.457884   -0.449931
| 10> C      2.302453    0.299299   -1.010136
| 11> C      1.232496   -0.182107   -0.241355
| 12> C      1.465216   -0.510821    1.100773
| 13> C      2.735581   -0.352291    1.661351
| 14> P     -0.387121   -0.344642   -1.018007
| 15> O     -0.251704   -0.792225   -2.464777
| 16> C     -1.348136   -1.537149   -0.064377
| 17> C     -1.202034   -2.903496   -0.352349
| 18> C     -1.912509   -3.864079    0.367613
| 19> C     -2.779660   -3.470372    1.384032
| 20> C     -2.938361   -2.117659    1.678924
| 21> C     -2.227524   -1.154999    0.959229
| 22> C     -1.219402    1.252818   -0.915584
| 23> C     -0.876480    2.225501    0.034892
| 24> C     -1.561175    3.441575    0.083095
| 25> C     -2.593582    3.699517   -0.816675
| 26> C     -2.942264    2.744191   -1.768429
| 27> C     -2.258925    1.529106   -1.817955
| 28> H      5.725011   -0.650052    1.352612
| 29> H      5.107552    0.506534    2.558152
| 30> H      5.718044    1.098483    1.013630
| 31> H      4.384616    0.823647   -1.073102
| 32> H      2.143746    0.544588   -2.059601
| 33> H      0.664870   -0.898321    1.725940
| 34> H      2.894226   -0.624219    2.702944
| 35> H     -0.530765   -3.216583   -1.151151
| 36> H     -1.791816   -4.918299    0.131421
| 37> H     -3.336261   -4.218214    1.943061
| 38> H     -3.620379   -1.811600    2.468476
| 39> H     -2.371476   -0.106425    1.206906
| 40> H     -0.072966    2.050454    0.745781
| 41> H     -1.285859    4.190926    0.821260
| 42> H     -3.123259    4.648027   -0.779896
| 43> H     -3.742886    2.945678   -2.475635
| 44> H     -2.530729    0.788578   -2.569242
| 45> **                         ****END OF INPUT****
 Total Charge           Charge          ....    0
 Multiplicity           Mult            ....    1
 Number of Electrons    NEL             ....  154
Dispersion correction           -0.089917689
FINAL SINGLE POINT ENERGY     -1150.292850702034
Dispersion correction             ... done (  0.1 sec)
Dispersion correction           -0.089787045
FINAL SINGLE POINT ENERGY     -1150.298909146185
Dispersion correction             ... done (  0.1 sec)
Dispersion correction           -0.089839589
FINAL SINGLE POINT ENERGY     -1150.300159420930
Dispersion correction             ... done (  0.1 sec)
FINAL SINGLE POINT ENERGY     -1150.300428487756
FINAL SINGLE POINT ENERGY     -1150.300491280288
Dispersion correction             ... done (  0.1 sec)
Dispersion correction           -0.089678005
FINAL SINGLE POINT ENERGY     -1150.300500499149
Dispersion correction             ... done (  0.1 sec)
Dispersion correction           -0.089669934
FINAL SINGLE POINT ENERGY     -1150.300502583572
Dispersion correction             ... done (  0.1 sec)
                    ***********************HURRAY********************

CARTESIAN COORDINATES (ANGSTROEM)
---------------------------------
  C      5.165277    0.344032    1.504026
  C      3.794524    0.180346    0.893568
  C      3.600505    0.312083   -0.498958
  C      2.337084    0.127381   -1.075553
  C      1.229621   -0.187227   -0.262799
  C      1.409844   -0.335516    1.126357
  C      2.678835   -0.147021    1.693612
  P     -0.381759   -0.375763   -1.106990
  O     -0.254481   -0.821406   -2.553998
  C     -1.342523   -1.547119   -0.075802
  C     -1.347053   -2.892808   -0.495464
  C     -2.041801   -3.856012    0.251842
  C     -2.737525   -3.479212    1.414067
  C     -2.747301   -2.135126    1.824626
  C     -2.054917   -1.166775    1.079189
  C     -1.228135    1.239258   -0.924653
  C     -1.006343    2.116689    0.155643
  C     -1.715632    3.326684    0.230929
  C     -2.637406    3.665816   -0.774350
  C     -2.845435    2.798981   -1.861693
  C     -2.140788    1.588225   -1.940760
  H      5.709556   -0.625365    1.517759
  H      5.107293    0.700369    2.551631
  H      5.786528    1.057761    0.927424
  H      4.459841    0.560137   -1.142607
  H      2.191197    0.212575   -2.163610
  H      0.559180   -0.613442    1.767868
  H      2.809482   -0.264082    2.781475
  H     -0.812584   -3.161524   -1.419913
  H     -2.046443   -4.906597   -0.077271
  H     -3.284008   -4.235832    1.997974
  H     -3.305630   -1.837018    2.725413
  H     -2.084563   -0.109966    1.387006
  H     -0.264758    1.862582    0.928923
  H     -1.540356    4.012863    1.073812
  H     -3.189589    4.616418   -0.714978
  H     -3.557188    3.072128   -2.655962
  H     -2.272549    0.903484   -2.792895

 Multiplicity           Mult            ....    1
 Number of Electrons    NEL             ....  154
 Basis Dimension        Dim             ....  383

ORBITAL ENERGIES
----------------

  NO   OCC          E(Eh)            E(eV)
   0   2.0000     -76.413466     -2079.3161
   1   2.0000     -18.715539      -509.2757
   2   2.0000      -9.935378      -270.3554
   3   2.0000      -9.931838      -270.2590
   4   2.0000      -9.931698      -270.2552
   5   2.0000      -9.930400      -270.2199
   6   2.0000      -9.929446      -270.1940
   7   2.0000      -9.929416      -270.1931
   8   2.0000      -9.928941      -270.1802
   9   2.0000      -9.928896      -270.1790
  10   2.0000      -9.927154      -270.1316
  11   2.0000      -9.927127      -270.1309
  12   2.0000      -9.926959      -270.1263
  13   2.0000      -9.926924      -270.1253
  14   2.0000      -9.926571      -270.1157
  15   2.0000      -9.926456      -270.1126
  16   2.0000      -9.925729      -270.0928
  17   2.0000      -9.925111      -270.0760
  18   2.0000      -9.923866      -270.0421
  19   2.0000      -9.923393      -270.0292
  20   2.0000      -9.923305      -270.0268
  21   2.0000      -6.371585      -173.3796
  22   2.0000      -4.592810      -124.9767
  23   2.0000      -4.592763      -124.9754
  24   2.0000      -4.592584      -124.9706
  25   2.0000      -0.849447       -23.1146
  26   2.0000      -0.781272       -21.2595
  27   2.0000      -0.778078       -21.1726
  28   2.0000      -0.776750       -21.1364
  29   2.0000      -0.707517       -19.2525
  30   2.0000      -0.686961       -18.6932
  31   2.0000      -0.676687       -18.4136
  32   2.0000      -0.676220       -18.4009
  33   2.0000      -0.674950       -18.3663
  34   2.0000      -0.673014       -18.3136
  35   2.0000      -0.625746       -17.0274
  36   2.0000      -0.576683       -15.6924
  37   2.0000      -0.551938       -15.0190
  38   2.0000      -0.549676       -14.9574
  39   2.0000      -0.547735       -14.9046
  40   2.0000      -0.539569       -14.6824
  41   2.0000      -0.528653       -14.3854
  42   2.0000      -0.502650       -13.6778
  43   2.0000      -0.472510       -12.8577
  44   2.0000      -0.466034       -12.6814
  45   2.0000      -0.439253       -11.9527
  46   2.0000      -0.425028       -11.5656
  47   2.0000      -0.414673       -11.2838
  48   2.0000      -0.412994       -11.2381
  49   2.0000      -0.405404       -11.0316
  50   2.0000      -0.403287       -10.9740
  51   2.0000      -0.397559       -10.8181
  52   2.0000      -0.383508       -10.4358
  53   2.0000      -0.381528       -10.3819
  54   2.0000      -0.381072       -10.3695
  55   2.0000      -0.379252       -10.3200
  56   2.0000      -0.376820       -10.2538
  57   2.0000      -0.371620       -10.1123
  58   2.0000      -0.348642        -9.4870
  59   2.0000      -0.338858        -9.2208
  60   2.0000      -0.338173        -9.2022
  61   2.0000      -0.334573        -9.1042
  62   2.0000      -0.326632        -8.8881
  63   2.0000      -0.315212        -8.5774
  64   2.0000      -0.311091        -8.4652
  65   2.0000      -0.307749        -8.3743
  66   2.0000      -0.304002        -8.2723
  67   2.0000      -0.302480        -8.2309
  68   2.0000      -0.296531        -8.0690
  69   2.0000      -0.246480        -6.7071
  70   2.0000      -0.242683        -6.6037
  71   2.0000      -0.239646        -6.5211
  72   2.0000      -0.237088        -6.4515
  73   2.0000      -0.236738        -6.4420
  74   2.0000      -0.228580        -6.2200
  75   2.0000      -0.216310        -5.8861
  76   2.0000      -0.215715        -5.8699
  77   0.0000      -0.066645        -1.8135
  78   0.0000      -0.065178        -1.7736
  79   0.0000      -0.054940        -1.4950
  80   0.0000      -0.053935        -1.4676
  81   0.0000      -0.047956        -1.3050

MULLIKEN ATOMIC CHARGES
-----------------------
   0 C :    0.008441
   1 C :   -0.036879
   2 C :   -0.020823
   3 C :    0.012926
   4 C :   -0.124157
   5 C :   -0.004331
   6 C :   -0.021809
   7 P :    0.633133
   8 O :   -0.456208
   9 C :   -0.129050
  10 C :    0.012093
  11 C :    0.000961
  12 C :    0.009169
  13 C :   -0.000783
  14 C :   -0.006914
  15 C :   -0.128759
  16 C :   -0.007504
  17 C :   -0.000471
  18 C :    0.009118
  19 C :    0.001112
  20 C :    0.012190
  21 H :    0.057809
  22 H :    0.036020
  23 H :    0.038363
  24 H :   -0.006124
  25 H :    0.018859
  26 H :    0.001885
  27 H :   -0.011604
  28 H :    0.021881
  29 H :    0.010599
  30 H :    0.008769
  31 H :    0.005057
  32 H :    0.005142
  33 H :    0.005739
  34 H :    0.004927
  35 H :    0.008789
  36 H :    0.010676
  37 H :    0.021758
Sum of atomic charges:   -0.0000000

LOEWDIN ATOMIC CHARGES
----------------------
   0 C :   -0.062862
   1 C :   -0.018553
   2 C :   -0.029797
   3 C :   -0.013220
   4 C :   -0.189639
   5 C :   -0.034279
   6 C :   -0.033790
   7 P :    0.887332
   8 O :   -0.490226
   9 C :   -0.182056
  10 C :   -0.014673
  11 C :   -0.026367
  12 C :   -0.021803
  13 C :   -0.030267
  14 C :   -0.035772
  15 C :   -0.182240
  16 C :   -0.035816
  17 C :   -0.030346
  18 C :   -0.021795
  19 C :   -0.026285
  20 C :   -0.014644
  21 H :    0.047288
  22 H :    0.036965
  23 H :    0.038039
  24 H :    0.032329
  25 H :    0.038578
  26 H :    0.032138
  27 H :    0.030795
  28 H :    0.038658
  29 H :    0.035737
  30 H :    0.034628
  31 H :    0.034243
  32 H :    0.032170
  33 H :    0.032324
  34 H :    0.034183
  35 H :    0.034625
  36 H :    0.035767
  37 H :    0.038631

  Mayer bond orders larger than 0.100000
B(  0-C ,  1-C ) :   1.0735 B(  0-C , 21-H ) :   0.9458 B(  0-C , 22-H ) :   0.9542
B(  0-C , 23-H ) :   0.9539 B(  1-C ,  2-C ) :   1.3717 B(  1-C ,  6-C ) :   1.3754
B(  2-C ,  3-C ) :   1.3724 B(  2-C , 24-H ) :   0.9788 B(  3-C ,  4-C ) :   1.3689
B(  3-C , 25-H ) :   0.9716 B(  4-C ,  5-C ) :   1.3559 B(  4-C ,  7-P ) :   0.8823
B(  5-C ,  6-C ) :   1.3845 B(  5-C , 26-H ) :   0.9639 B(  6-C , 27-H ) :   0.9760
B(  7-P ,  8-O ) :   1.8773 B(  7-P ,  9-C ) :   0.8774 B(  7-P , 15-C ) :   0.8781
B(  9-C , 10-C ) :   1.3808 B(  9-C , 14-C ) :   1.3650 B( 10-C , 11-C ) :   1.3756
B( 10-C , 28-H ) :   0.9717 B( 11-C , 12-C ) :   1.3779 B( 11-C , 29-H ) :   0.9778
B( 12-C , 13-C ) :   1.3813 B( 12-C , 30-H ) :   0.9759 B( 13-C , 14-C ) :   1.3898
B( 13-C , 31-H ) :   0.9752 B( 14-C , 32-H ) :   0.9645 B( 15-C , 16-C ) :   1.3662
B( 15-C , 20-C ) :   1.3798 B( 16-C , 17-C ) :   1.3889 B( 16-C , 33-H ) :   0.9645
B( 17-C , 18-C ) :   1.3814 B( 17-C , 34-H ) :   0.9753 B( 18-C , 19-C ) :   1.3778
B( 18-C , 35-H ) :   0.9759 B( 19-C , 20-C ) :   1.3757 B( 19-C , 36-H ) :   0.9777
B( 20-C , 37-H ) :   0.9719

Dispersion correction           -0.089667155
FINAL SINGLE POINT ENERGY     -1150.300503510144

DIPOLE MOMENT
-------------

Method             : SCF
Type of density    : Electron Density
Multiplicity       :   1
Irrep              :   0
Energy             : -1150.2108363552188166 Eh
Relativity type    :
Basis              : AO
                                X                 Y                 Z
Electronic contribution:     -7.066217260      -2.303037802      -7.873348098
Nuclear contribution   :      7.184150592       2.733324093       9.354348076
                        -----------------------------------------
Total Dipole Moment    :      0.117933333       0.430286291       1.480999978
                        -----------------------------------------
Magnitude (a.u.)       :      1.546743514
Magnitude (Debye)      :      3.931509571

Rotational constants in cm-1:             0.010571             0.008144             0.005807
Rotational constants in MHz :           316.897931           244.161710           174.098078

                             ****ORCA TERMINATED NORMALLY****
TOTAL RUN TIME: 0 days 0 hours 2 minutes 23 seconds 908 msec
