                         Program Version 6.0.0  -   RELEASE   -
|  1> ! RI BP86 def2-SVP D3BJ TIGHTSCF Opt
|  2> %pal
|  3> nprocs 6
|  4> end
|  5>
|  6> * xyz 0 1
|  7> C     -0.154667   -2.021439    1.706859
|  8> P      0.050867   -1.385534    0.023688
|  9> O      0.192355   -2.583607   -0.893339
| 10> C      1.481983   -0.313934   -0.015506
| 11> C      1.945502    0.375402    1.113307
| 12> C      3.063394    1.208481    1.027348
| 13> C      3.730652    1.361074   -0.186260
| 14> C      3.282922    0.680472   -1.315574
| 15> C      2.166239   -0.151288   -1.229768
| 16> C     -1.404697   -0.403520   -0.318604
| 17> C     -1.673681    0.782093    0.379299
| 18> C     -2.820522    1.526809    0.097257
| 19> C     -3.710636    1.094261   -0.883719
| 20> C     -3.455235   -0.082015   -1.584746
| 21> C     -2.308933   -0.825981   -1.303535
| 22> H     -0.341906   -1.214018    2.419323
| 23> H      0.743218   -2.564343    2.014819
| 24> H     -1.004458   -2.709480    1.738842
| 25> H      1.444620    0.275207    2.071706
| 26> H      3.416313    1.738722    1.908485
| 27> H      4.601515    2.008174   -0.251884
| 28> H      3.803312    0.793596   -2.263205
| 29> H      1.824718   -0.686346   -2.115112
| 30> H     -0.990188    1.139315    1.144788
| 31> H     -3.019008    2.447242    0.640688
| 32> H     -4.602459    1.675187   -1.104257
| 33> H     -4.146619   -0.420717   -2.352179
| 34> H     -2.114601   -1.743813   -1.857120
| 35> **                         ****END OF INPUT****
 Total Charge           Charge          ....    0
 Multiplicity           Mult            ....    1
 Number of Electrons    NEL             ....  114
Dispersion correction           -0.061574976
FINAL SINGLE POINT ENERGY      -919.378516539133
Dispersion correction             ... done (  0.1 sec)
Dispersion correction           -0.061388040
FINAL SINGLE POINT ENERGY      -919.385071776294
Dispersion correction             ... done (  0.1 sec)
Dispersion correction           -0.061325579
FINAL SINGLE POINT ENERGY      -919.386720756963
Dispersion correction             ... done (  0.1 sec)
FINAL SINGLE POINT ENERGY      -919.387035439133
FINAL SINGLE POINT ENERGY      -919.387124930563
FINAL SINGLE POINT ENERGY      -919.387162280383
FINAL SINGLE POINT ENERGY      -919.387179482384
Dispersion correction             ... done (  0.1 sec)
Dispersion correction           -0.061151256
FINAL SINGLE POINT ENERGY      -919.387185406438
Dispersion correction             ... done (  0.1 sec)
Dispersion correction           -0.061152424
FINAL SINGLE POINT ENERGY      -919.387187198193
Dispersion correction             ... done (  0.1 sec)
                    ***********************HURRAY********************

CARTESIAN COORDINATES (ANGSTROEM)
---------------------------------
  C     -0.099240   -2.076807    1.681156
  P      0.045203   -1.446140   -0.034321
  O      0.152409   -2.518675   -1.104033
  C      1.489511   -0.316136   -0.031294
  C      1.815596    0.556777    1.026917
  C      2.936353    1.396307    0.924949
  C      3.736194    1.364966   -0.230622
  C      3.419088    0.488397   -1.282461
  C      2.300404   -0.353205   -1.183658
  C     -1.431954   -0.382738   -0.280215
  C     -1.742643    0.733156    0.523061
  C     -2.897613    1.485863    0.260709
  C     -3.743811    1.128637   -0.804414
  C     -3.432992    0.019433   -1.608776
  C     -2.278180   -0.736305   -1.349284
  H     -0.234460   -1.261232    2.418215
  H      0.812698   -2.655413    1.926210
  H     -0.979467   -2.747746    1.718496
  H      1.204420    0.582535    1.942466
  H      3.190143    2.075318    1.753491
  H      4.615003    2.023551   -0.307990
  H      4.050638    0.457146   -2.183708
  H      2.036915   -1.061522   -1.984707
  H     -1.080085    1.029506    1.351224
  H     -3.137927    2.358207    0.887851
  H     -4.648541    1.721831   -1.008615
  H     -4.093593   -0.257683   -2.444832
  H     -2.004068   -1.608026   -1.964216

 Multiplicity           Mult            ....    1
 Number of Electrons    NEL             ....  114
 Basis Dimension        Dim             ....  279

ORBITAL ENERGIES
----------------

  NO   OCC          E(Eh)            E(eV)
   0   2.0000     -76.414815     -2079.3528
   1   2.0000     -18.715533      -509.2755
   2   2.0000      -9.936332      -270.3813
   3   2.0000      -9.933885      -270.3147
   4   2.0000      -9.931471      -270.2491
   5   2.0000      -9.931146      -270.2402
   6   2.0000      -9.929736      -270.2019
   7   2.0000      -9.929574      -270.1974
   8   2.0000      -9.928824      -270.1770
   9   2.0000      -9.928557      -270.1698
  10   2.0000      -9.927572      -270.1430
  11   2.0000      -9.927063      -270.1291
  12   2.0000      -9.926839      -270.1230
  13   2.0000      -9.926125      -270.1036
  14   2.0000      -9.925906      -270.0976
  15   2.0000      -6.373558      -173.4333
  16   2.0000      -4.594850      -125.0322
  17   2.0000      -4.594728      -125.0289
  18   2.0000      -4.594424      -125.0206
  19   2.0000      -0.850379       -23.1400
  20   2.0000      -0.780370       -21.2349
  21   2.0000      -0.777759       -21.1639
  22   2.0000      -0.695899       -18.9364
  23   2.0000      -0.678447       -18.4615
  24   2.0000      -0.676576       -18.4106
  25   2.0000      -0.675495       -18.3811
  26   2.0000      -0.652454       -17.7542
  27   2.0000      -0.568236       -15.4625
  28   2.0000      -0.551481       -15.0066
  29   2.0000      -0.548713       -14.9312
  30   2.0000      -0.541699       -14.7404
  31   2.0000      -0.501470       -13.6457
  32   2.0000      -0.474299       -12.9063
  33   2.0000      -0.454198       -12.3594
  34   2.0000      -0.417039       -11.3482
  35   2.0000      -0.412766       -11.2319
  36   2.0000      -0.409647       -11.1471
  37   2.0000      -0.403523       -10.9804
  38   2.0000      -0.392692       -10.6857
  39   2.0000      -0.390859       -10.6358
  40   2.0000      -0.382951       -10.4206
  41   2.0000      -0.380852       -10.3635
  42   2.0000      -0.365049        -9.9335
  43   2.0000      -0.359685        -9.7875
  44   2.0000      -0.340679        -9.2703
  45   2.0000      -0.336873        -9.1668
  46   2.0000      -0.323600        -8.8056
  47   2.0000      -0.314907        -8.5691
  48   2.0000      -0.310586        -8.4515
  49   2.0000      -0.300951        -8.1893
  50   2.0000      -0.297427        -8.0934
  51   2.0000      -0.247201        -6.7267
  52   2.0000      -0.241946        -6.5837
  53   2.0000      -0.239344        -6.5129
  54   2.0000      -0.235510        -6.4086
  55   2.0000      -0.219270        -5.9666
  56   2.0000      -0.218114        -5.9352
  57   0.0000      -0.071395        -1.9428
  58   0.0000      -0.056263        -1.5310
  59   0.0000      -0.051960        -1.4139
  60   0.0000      -0.048400        -1.3170
  61   0.0000       0.015276         0.4157

MULLIKEN ATOMIC CHARGES
-----------------------
   0 C :   -0.162663
   1 P :    0.537163
   2 O :   -0.455003
   3 C :   -0.106237
   4 C :   -0.022959
   5 C :    0.001597
   6 C :    0.007624
   7 C :    0.004119
   8 C :    0.001522
   9 C :   -0.108828
  10 C :   -0.006094
  11 C :   -0.000741
  12 C :    0.007893
  13 C :    0.002520
  14 C :   -0.005398
  15 H :    0.054492
  16 H :    0.083609
  17 H :    0.082065
  18 H :   -0.002892
  19 H :    0.005369
  20 H :    0.009866
  21 H :    0.011484
  22 H :    0.024860
  23 H :   -0.011939
  24 H :    0.004925
  25 H :    0.009021
  26 H :    0.010470
  27 H :    0.024156
Sum of atomic charges:   -0.0000000

LOEWDIN ATOMIC CHARGES
----------------------
   0 C :   -0.223736
   1 P :    0.878798
   2 O :   -0.495082
   3 C :   -0.184980
   4 C :   -0.037623
   5 C :   -0.029375
   6 C :   -0.021302
   7 C :   -0.025437
   8 C :   -0.014898
   9 C :   -0.185464
  10 C :   -0.033832
  11 C :   -0.029572
  12 C :   -0.022074
  13 C :   -0.027073
  14 C :   -0.018460
  15 H :    0.035389
  16 H :    0.047140
  17 H :    0.048831
  18 H :    0.025360
  19 H :    0.034283
  20 H :    0.035050
  21 H :    0.036167
  22 H :    0.038907
  23 H :    0.026276
  24 H :    0.033981
  25 H :    0.034652
  26 H :    0.035605
  27 H :    0.038468

  Mayer bond orders larger than 0.100000
B(  0-C ,  1-P ) :   0.9625 B(  0-C , 15-H ) :   0.9312 B(  0-C , 16-H ) :   0.9524
B(  0-C , 17-H ) :   0.9493 B(  1-P ,  2-O ) :   1.8898 B(  1-P ,  3-C ) :   0.8580
B(  1-P ,  9-C ) :   0.8610 B(  3-C ,  4-C ) :   1.3567 B(  3-C ,  8-C ) :   1.3929
B(  4-C ,  5-C ) :   1.4041 B(  4-C , 18-H ) :   0.9679 B(  5-C ,  6-C ) :   1.3813
B(  5-C , 19-H ) :   0.9740 B(  6-C ,  7-C ) :   1.3817 B(  6-C , 20-H ) :   0.9758
B(  7-C ,  8-C ) :   1.3710 B(  7-C , 21-H ) :   0.9787 B(  8-C , 22-H ) :   0.9689
B(  9-C , 10-C ) :   1.3503 B(  9-C , 14-C ) :   1.3996 B( 10-C , 11-C ) :   1.4084
B( 10-C , 23-H ) :   0.9697 B( 11-C , 12-C ) :   1.3769 B( 11-C , 24-H ) :   0.9743
B( 12-C , 13-C ) :   1.3857 B( 12-C , 25-H ) :   0.9757 B( 13-C , 14-C ) :   1.3625
B( 13-C , 26-H ) :   0.9788 B( 14-C , 27-H ) :   0.9695

Dispersion correction           -0.061151977
FINAL SINGLE POINT ENERGY      -919.387187747697

DIPOLE MOMENT
-------------

Method             : SCF
Type of density    : Electron Density
Multiplicity       :   1
Irrep              :   0
Energy             :  -919.3260357702590682 Eh
Relativity type    :
Basis              : AO
                                X                 Y                 Z
Electronic contribution:      0.444483803      -3.091192686      -3.419861034
Nuclear contribution   :     -0.521090750       4.210001448       4.337242467
                        -----------------------------------------
Total Dipole Moment    :     -0.076606947       1.118808762       0.917381432
                        -----------------------------------------
Magnitude (a.u.)       :      1.448858296
Magnitude (Debye)      :      3.682705119

Rotational constants in cm-1:             0.029992             0.012064             0.010846
Rotational constants in MHz :           899.138128           361.655480           325.155791

                             ****ORCA TERMINATED NORMALLY****
TOTAL RUN TIME: 0 days 0 hours 1 minutes 51 seconds 489 msec
