                         Program Version 6.0.0  -   RELEASE   -
|  1> ! RIJCOSX M062X def2-TZVP D3ZERO NormalSCF
|  2> %pal
|  3> nprocs 6
|  4> end
|  5>
|  6> * xyz 0 1
|  7>   C           2.88977153913263      2.98199158562673     -0.96522629202421
|  8>   O           1.80652530452609      2.09664840190029     -0.75185426479930
|  9>   C           0.87806916445688      2.40278788945570      0.20108239142522
| 10>   C           0.89134983800893      3.58332102433574      0.96804670494531
| 11>   C          -0.10608941672374      3.79180655383937      1.93802999926673
| 12>   C          -1.10186676331662      2.82878547204707      2.15155720654460
| 13>   C          -1.10220058670718      1.64775656286819      1.38737096118754
| 14>   C          -0.12577013580458      1.41630914959145      0.40473845460734
| 15>   P          -0.08788637462870     -0.05156166246816     -0.72274270112441
| 16>   C          -1.47445732148390     -1.06439481929458     -0.03603275610460
| 17>   C          -1.30137528195570     -2.25150676945112      0.69563267517296
| 18>   C          -2.40469523663996     -3.02272012610557      1.10321747756605
| 19>   C          -3.70194174577077     -2.60193351663713      0.78016868242636
| 20>   C          -3.90691587233076     -1.41715496472524      0.05019759333767
| 21>   C          -2.79702712621110     -0.65551382702299     -0.36287833247812
| 22>   O          -2.88515781966028      0.51084668067780     -1.06590538138203
| 23>   C          -4.16391970908725      1.02147683152395     -1.39308709212727
| 24>   C           1.36836839454859     -0.95591370893594     -0.01391719521241
| 25>   C           1.99238369847815     -0.64249528078572      1.21002113608948
| 26>   C           3.11834562188296     -1.35888340158776      1.64697609286837
| 27>   C           3.63090817891038     -2.40981886049779      0.86670490474428
| 28>   C           3.01727955876631     -2.74129068046435     -0.35177424098399
| 29>   C           1.89289286394288     -2.01774978219218     -0.78720776545577
| 30>   O           1.25605855564067     -2.37583131599813     -1.95790775436106
| 31>   C           1.77487261851229     -1.74173182968112     -3.12710322398467
| 32>   H           3.51838685442586      2.52138681573668     -1.74939446348708
| 33>   H           2.54665336713430      3.98155626465069     -1.31551971853194
| 34>   H           3.49859727055233      3.11432393467830     -0.04293979011689
| 35>   H           1.67059321733653      4.34264874145375      0.81695391574172
| 36>   H          -0.09208078625765      4.71824406640570      2.53267879514993
| 37>   H          -1.87527598541658      2.98801224290596      2.91790833301121
| 38>   H          -1.86844968350842      0.87907172450452      1.56742749928914
| 39>   H          -0.28208477744372     -2.57483533759958      0.95322174112998
| 40>   H          -2.24584172171837     -3.94870744796235      1.67575951512508
| 41>   H          -4.57357829114790     -3.19512826735546      1.09710054923942
| 42>   H          -4.92906975257635     -1.09802898330171     -0.19451750519278
| 43>   H          -3.99062551202205      1.96511669497480     -1.94216966941556
| 44>   H          -4.73549464192840      0.32133821444319     -2.04298717725372
| 45>   H          -4.76532051245940      1.23645029132755     -0.48139872899958
| 46>   H           1.58214185248500      0.17157092795591      1.82695904534887
| 47>   H           3.59220035904944     -1.10117789268539      2.60660714003385
| 48>   H           4.50758430656015     -2.97978191011473      1.21128958504322
| 49>   H           3.38728545498062     -3.56985334780724     -0.97434798504928
| 50>   H           2.84488753115845     -2.00493860435647     -3.29013421368264
| 51>   H           1.17538897520726     -2.10530991243816     -3.98301571557980
| 52>   H           1.67658252910269     -0.63518882143450     -3.05758543194722
| 53> **                         ****END OF INPUT****

CARTESIAN COORDINATES (ANGSTROEM)
---------------------------------
  C      2.889772    2.981992   -0.965226
  O      1.806525    2.096648   -0.751854
  C      0.878069    2.402788    0.201082
  C      0.891350    3.583321    0.968047
  C     -0.106089    3.791807    1.938030
  C     -1.101867    2.828785    2.151557
  C     -1.102201    1.647757    1.387371
  C     -0.125770    1.416309    0.404738
  P     -0.087886   -0.051562   -0.722743
  C     -1.474457   -1.064395   -0.036033
  C     -1.301375   -2.251507    0.695633
  C     -2.404695   -3.022720    1.103217
  C     -3.701942   -2.601934    0.780169
  C     -3.906916   -1.417155    0.050198
  C     -2.797027   -0.655514   -0.362878
  O     -2.885158    0.510847   -1.065905
  C     -4.163920    1.021477   -1.393087
  C      1.368368   -0.955914   -0.013917
  C      1.992384   -0.642495    1.210021
  C      3.118346   -1.358883    1.646976
  C      3.630908   -2.409819    0.866705
  C      3.017280   -2.741291   -0.351774
  C      1.892893   -2.017750   -0.787208
  O      1.256059   -2.375831   -1.957908
  C      1.774873   -1.741732   -3.127103
  H      3.518387    2.521387   -1.749394
  H      2.546653    3.981556   -1.315520
  H      3.498597    3.114324   -0.042940
  H      1.670593    4.342649    0.816954
  H     -0.092081    4.718244    2.532679
  H     -1.875276    2.988012    2.917908
  H     -1.868450    0.879072    1.567427
  H     -0.282085   -2.574835    0.953222
  H     -2.245842   -3.948707    1.675760
  H     -4.573578   -3.195128    1.097101
  H     -4.929070   -1.098029   -0.194518
  H     -3.990626    1.965117   -1.942170
  H     -4.735495    0.321338   -2.042987
  H     -4.765321    1.236450   -0.481399
  H      1.582142    0.171571    1.826959
  H      3.592200   -1.101178    2.606607
  H      4.507584   -2.979782    1.211290
  H      3.387285   -3.569853   -0.974348
  H      2.844888   -2.004939   -3.290134
  H      1.175389   -2.105310   -3.983016
  H      1.676583   -0.635189   -3.057585

 Total Charge           Charge          ....    0
 Multiplicity           Mult            ....    1
 Number of Electrons    NEL             ....  186
 Basis Dimension        Dim             ....  907

ORBITAL ENERGIES
----------------

  NO   OCC          E(Eh)            E(eV)
   0   2.0000     -78.023859     -2123.1371
   1   2.0000     -19.659619      -534.9654
   2   2.0000     -19.658400      -534.9323
   3   2.0000     -19.637334      -534.3590
   4   2.0000     -10.607466      -288.6438
   5   2.0000     -10.606672      -288.6222
   6   2.0000     -10.597679      -288.3775
   7   2.0000     -10.596520      -288.3460
   8   2.0000     -10.595098      -288.3073
   9   2.0000     -10.581332      -287.9327
  10   2.0000     -10.548295      -287.0337
  11   2.0000     -10.547528      -287.0128
  12   2.0000     -10.546465      -286.9839
  13   2.0000     -10.545620      -286.9609
  14   2.0000     -10.544882      -286.9408
  15   2.0000     -10.544753      -286.9373
  16   2.0000     -10.544569      -286.9323
  17   2.0000     -10.544064      -286.9186
  18   2.0000     -10.544017      -286.9173
  19   2.0000     -10.543781      -286.9109
  20   2.0000     -10.543582      -286.9054
  21   2.0000     -10.543084      -286.8919
  22   2.0000     -10.542401      -286.8733
  23   2.0000     -10.537517      -286.7404
  24   2.0000     -10.535776      -286.6930
  25   2.0000      -6.839252      -186.1055
  26   2.0000      -4.953758      -134.7986
  27   2.0000      -4.953420      -134.7894
  28   2.0000      -4.953345      -134.7874
  29   2.0000      -1.192549       -32.4509
  30   2.0000      -1.191618       -32.4256
  31   2.0000      -1.170004       -31.8374
  32   2.0000      -0.952898       -25.9297
  33   2.0000      -0.945958       -25.7408
  34   2.0000      -0.945281       -25.7224
  35   2.0000      -0.865443       -23.5499
  36   2.0000      -0.849269       -23.1098
  37   2.0000      -0.842919       -22.9370
  38   2.0000      -0.837991       -22.8029
  39   2.0000      -0.833680       -22.6856
  40   2.0000      -0.831458       -22.6251
  41   2.0000      -0.784322       -21.3425
  42   2.0000      -0.780601       -21.2412
  43   2.0000      -0.768792       -20.9199
  44   2.0000      -0.727650       -19.8004
  45   2.0000      -0.688247       -18.7282
  46   2.0000      -0.686020       -18.6676
  47   2.0000      -0.668732       -18.1971
  48   2.0000      -0.666818       -18.1450
  49   2.0000      -0.662817       -18.0362
  50   2.0000      -0.631398       -17.1812
  51   2.0000      -0.604290       -16.4436
  52   2.0000      -0.597887       -16.2693
  53   2.0000      -0.584030       -15.8923
  54   2.0000      -0.556611       -15.1462
  55   2.0000      -0.554306       -15.0834
  56   2.0000      -0.550313       -14.9748
  57   2.0000      -0.548732       -14.9318
  58   2.0000      -0.547228       -14.8908
  59   2.0000      -0.541112       -14.7244
  60   2.0000      -0.539644       -14.6845
  61   2.0000      -0.528672       -14.3859
  62   2.0000      -0.525274       -14.2934
  63   2.0000      -0.506656       -13.7868
  64   2.0000      -0.503866       -13.7109
  65   2.0000      -0.495835       -13.4924
  66   2.0000      -0.487364       -13.2619
  67   2.0000      -0.480149       -13.0655
  68   2.0000      -0.478249       -13.0138
  69   2.0000      -0.464930       -12.6514
  70   2.0000      -0.464102       -12.6289
  71   2.0000      -0.448747       -12.2110
  72   2.0000      -0.442849       -12.0505
  73   2.0000      -0.438378       -11.9289
  74   2.0000      -0.430613       -11.7176
  75   2.0000      -0.421228       -11.4622
  76   2.0000      -0.418852       -11.3975
  77   2.0000      -0.418806       -11.3963
  78   2.0000      -0.412205       -11.2167
  79   2.0000      -0.404917       -11.0184
  80   2.0000      -0.401668       -10.9299
  81   2.0000      -0.392126       -10.6703
  82   2.0000      -0.387867       -10.5544
  83   2.0000      -0.376641       -10.2489
  84   2.0000      -0.370312       -10.0767
  85   2.0000      -0.341113        -9.2821
  86   2.0000      -0.328941        -8.9509
  87   2.0000      -0.305313        -8.3080
  88   2.0000      -0.301211        -8.1964
  89   2.0000      -0.294935        -8.0256
  90   2.0000      -0.281463        -7.6590
  91   2.0000      -0.274977        -7.4825
  92   2.0000      -0.251009        -6.8303
  93   0.0000       0.006795         0.1849
  94   0.0000       0.008426         0.2293
  95   0.0000       0.018332         0.4988
  96   0.0000       0.024505         0.6668
  97   0.0000       0.036323         0.9884

MULLIKEN ATOMIC CHARGES
-----------------------
   0 C :   -0.313100
   1 O :   -0.281960
   2 C :    0.259634
   3 C :   -0.233621
   4 C :   -0.141104
   5 C :   -0.200876
   6 C :   -0.108024
   7 C :   -0.123090
   8 P :    0.140846
   9 C :   -0.066632
  10 C :   -0.095577
  11 C :   -0.206571
  12 C :   -0.140167
  13 C :   -0.228224
  14 C :    0.213777
  15 O :   -0.279059
  16 C :   -0.316080
  17 C :   -0.089189
  18 C :   -0.129817
  19 C :   -0.173600
  20 C :   -0.129789
  21 C :   -0.178387
  22 C :    0.180286
  23 O :   -0.325957
  24 C :   -0.251805
  25 H :    0.154341
  26 H :    0.150776
  27 H :    0.153024
  28 H :    0.161173
  29 H :    0.142157
  30 H :    0.139333
  31 H :    0.177696
  32 H :    0.179784
  33 H :    0.140397
  34 H :    0.142058
  35 H :    0.162219
  36 H :    0.157647
  37 H :    0.152475
  38 H :    0.150732
  39 H :    0.183671
  40 H :    0.143909
  41 H :    0.143559
  42 H :    0.154620
  43 H :    0.132472
  44 H :    0.145279
  45 H :    0.150764
Sum of atomic charges:    0.0000000

LOEWDIN ATOMIC CHARGES
----------------------
   0 C :   -0.338256
   1 O :    0.233833
   2 C :   -0.246079
   3 C :   -0.150256
   4 C :   -0.144116
   5 C :   -0.163123
   6 C :   -0.133028
   7 C :   -0.248434
   8 P :    0.728218
   9 C :   -0.246871
  10 C :   -0.125900
  11 C :   -0.159495
  12 C :   -0.142303
  13 C :   -0.150828
  14 C :   -0.251695
  15 O :    0.235214
  16 C :   -0.337945
  17 C :   -0.244138
  18 C :   -0.130158
  19 C :   -0.153085
  20 C :   -0.141197
  21 C :   -0.122454
  22 C :   -0.257006
  23 O :    0.195810
  24 C :   -0.341534
  25 H :    0.119856
  26 H :    0.112448
  27 H :    0.113351
  28 H :    0.149954
  29 H :    0.147055
  30 H :    0.145673
  31 H :    0.159139
  32 H :    0.159663
  33 H :    0.146281
  34 H :    0.147303
  35 H :    0.149937
  36 H :    0.120909
  37 H :    0.112952
  38 H :    0.112454
  39 H :    0.159328
  40 H :    0.146634
  41 H :    0.147051
  42 H :    0.152656
  43 H :    0.106648
  44 H :    0.116130
  45 H :    0.109404

  Mayer bond orders larger than 0.100000
B(  0-C ,  1-O ) :   0.9449 B(  0-C , 25-H ) :   0.9734 B(  0-C , 26-H ) :   0.9645
B(  0-C , 27-H ) :   0.9638 B(  1-O ,  2-C ) :   1.0643 B(  2-C ,  3-C ) :   1.4124
B(  2-C ,  7-C ) :   1.2867 B(  3-C ,  4-C ) :   1.4369 B(  3-C , 28-H ) :   0.9211
B(  4-C ,  5-C ) :   1.4721 B(  4-C , 29-H ) :   0.9434 B(  5-C ,  6-C ) :   1.4459
B(  5-C , 30-H ) :   0.9476 B(  6-C ,  7-C ) :   1.4136 B(  6-C , 31-H ) :   0.9190
B(  7-C ,  8-P ) :   0.9575 B(  8-P ,  9-C ) :   0.9586 B(  8-P , 17-C ) :   0.8686
B(  9-C , 10-C ) :   1.4052 B(  9-C , 14-C ) :   1.2741 B( 10-C , 11-C ) :   1.4560
B( 10-C , 32-H ) :   0.9221 B( 11-C , 12-C ) :   1.4717 B( 11-C , 33-H ) :   0.9472
B( 12-C , 13-C ) :   1.4386 B( 12-C , 34-H ) :   0.9441 B( 13-C , 14-C ) :   1.4138
B( 13-C , 35-H ) :   0.9194 B( 14-C , 15-O ) :   1.0692 B( 15-O , 16-C ) :   0.9440
B( 16-C , 36-H ) :   0.9728 B( 16-C , 37-H ) :   0.9645 B( 16-C , 38-H ) :   0.9636
B( 17-C , 18-C ) :   1.3505 B( 17-C , 22-C ) :   1.3345 B( 18-C , 19-C ) :   1.4736
B( 18-C , 39-H ) :   0.9178 B( 19-C , 20-C ) :   1.4350 B( 19-C , 40-H ) :   0.9448
B( 20-C , 21-C ) :   1.4393 B( 20-C , 41-H ) :   0.9473 B( 21-C , 22-C ) :   1.4979
B( 21-C , 42-H ) :   0.9308 B( 22-C , 23-O ) :   0.9270 B( 23-O , 24-C ) :   0.9154
B( 24-C , 43-H ) :   0.9663 B( 24-C , 44-H ) :   0.9742 B( 24-C , 45-H ) :   0.9574

Dispersion correction           -0.003765074
FINAL SINGLE POINT ENERGY     -1379.817761044410

DIPOLE MOMENT
-------------

Method             : SCF
Type of density    : Electron Density
Multiplicity       :   1
Irrep              :   0
Energy             : -1379.8139959705627007 Eh
Relativity type    :
Basis              : AO
                                X                 Y                 Z
Electronic contribution:     -0.956416762      -3.923268596       0.708332138
Nuclear contribution   :      1.113436042       4.673837307      -0.723541424
                        -----------------------------------------
Total Dipole Moment    :      0.157019280       0.750568711      -0.015209286
                        -----------------------------------------
Magnitude (a.u.)       :      0.766967904
Magnitude (Debye)      :      1.949477485

Rotational constants in cm-1:             0.007888             0.006987             0.004845
Rotational constants in MHz :           236.486996           209.466551           145.262720

                             ****ORCA TERMINATED NORMALLY****
TOTAL RUN TIME: 0 days 0 hours 3 minutes 14 seconds 968 msec
