                         Program Version 6.0.0  -   RELEASE   -
|  1> ! RI BP86 def2-SVP D3BJ TIGHTSCF Opt
|  2> %pal
|  3> nprocs 6
|  4> end
|  5>
|  6> * xyz 0 1
|  7> C      2.520376   -1.288477   -0.135203
|  8> C      1.641830   -0.037559   -0.150443
|  9> P      0.003720   -0.301190    0.692044
| 10> C     -0.739946    1.391905    0.484480
| 11> C     -0.187344    2.405166    1.486879
| 12> C     -0.843235    3.707414    1.311342
| 13> N     -1.368278    4.730818    1.161682
| 14> C     -0.903580   -1.216832   -0.650008
| 15> C     -2.327077   -1.598695   -0.244168
| 16> C     -2.977605   -2.360539   -1.318067
| 17> N     -3.480077   -2.960369   -2.174310
| 18> C      3.816675   -1.010188   -0.766882
| 19> N      4.836074   -0.777463   -1.268965
| 20> H      2.683598   -1.627402    0.895037
| 21> H      2.030447   -2.112449   -0.666258
| 22> H      1.475765    0.301892   -1.179900
| 23> H      2.164439    0.773760    0.369854
| 24> H     -0.578669    1.741294   -0.542411
| 25> H     -1.824153    1.305707    0.622794
| 26> H      0.894254    2.526480    1.358773
| 27> H     -0.347872    2.052953    2.513077
| 28> H     -0.339678   -2.128566   -0.879839
| 29> H     -0.914757   -0.612488   -1.565011
| 30> H     -2.921119   -0.703843   -0.026602
| 31> H     -2.313787   -2.201332    0.672105
| 32> **                         ****END OF INPUT****
 Total Charge           Charge          ....    0
 Multiplicity           Mult            ....    1
 Number of Electrons    NEL             ....  102
Dispersion correction           -0.044463161
FINAL SINGLE POINT ENERGY      -855.327367203678
Dispersion correction             ... done (  0.1 sec)
Dispersion correction           -0.044149258
FINAL SINGLE POINT ENERGY      -855.330891612800
Dispersion correction             ... done (  0.1 sec)
Dispersion correction           -0.044016386
FINAL SINGLE POINT ENERGY      -855.331179760084
Dispersion correction             ... done (  0.1 sec)
Dispersion correction           -0.043958793
FINAL SINGLE POINT ENERGY      -855.331240575377
Dispersion correction             ... done (  0.1 sec)
Dispersion correction           -0.043955326
FINAL SINGLE POINT ENERGY      -855.331248832822
Dispersion correction             ... done (  0.1 sec)
                    ***********************HURRAY********************

CARTESIAN COORDINATES (ANGSTROEM)
---------------------------------
  C      2.548217   -1.279594   -0.125439
  C      1.641725   -0.032099   -0.188071
  P      0.004408   -0.302291    0.692659
  C     -0.731528    1.409692    0.452416
  C     -0.210147    2.418361    1.497639
  C     -0.839536    3.734684    1.364107
  N     -1.358503    4.776530    1.234572
  C     -0.911893   -1.198873   -0.681102
  C     -2.331046   -1.626146   -0.250291
  C     -3.022857   -2.390078   -1.291638
  N     -3.551966   -2.997879   -2.141452
  C      3.856507   -1.049206   -0.743475
  N      4.893916   -0.837263   -1.243885
  H      2.702722   -1.592083    0.929891
  H      2.073196   -2.143631   -0.638359
  H      1.476110    0.277500   -1.242233
  H      2.151434    0.812930    0.320176
  H     -0.538618    1.778784   -0.577544
  H     -1.831938    1.311137    0.559665
  H      0.889495    2.552371    1.407990
  H     -0.393559    2.038410    2.525869
  H     -0.320706   -2.103787   -0.933707
  H     -0.955072   -0.574384   -1.599108
  H     -2.954944   -0.740513   -0.002023
  H     -2.285415   -2.242574    0.673342

 Multiplicity           Mult            ....    1
 Number of Electrons    NEL             ....  102
 Basis Dimension        Dim             ....  246

ORBITAL ENERGIES
----------------

  NO   OCC          E(Eh)            E(eV)
   0   2.0000     -76.380621     -2078.4224
   1   2.0000     -14.023559      -381.6004
   2   2.0000     -14.023555      -381.6003
   3   2.0000     -14.023551      -381.6002
   4   2.0000      -9.991681      -271.8875
   5   2.0000      -9.991666      -271.8871
   6   2.0000      -9.991661      -271.8869
   7   2.0000      -9.969422      -271.2818
   8   2.0000      -9.969405      -271.2813
   9   2.0000      -9.969349      -271.2798
  10   2.0000      -9.966733      -271.2086
  11   2.0000      -9.966726      -271.2084
  12   2.0000      -9.966723      -271.2083
  13   2.0000      -6.350666      -172.8104
  14   2.0000      -4.572056      -124.4120
  15   2.0000      -4.572053      -124.4119
  16   2.0000      -4.568380      -124.3119
  17   2.0000      -0.827655       -22.5216
  18   2.0000      -0.827125       -22.5072
  19   2.0000      -0.827125       -22.5072
  20   2.0000      -0.772220       -21.0132
  21   2.0000      -0.750218       -20.4145
  22   2.0000      -0.750209       -20.4142
  23   2.0000      -0.674562       -18.3558
  24   2.0000      -0.619808       -16.8658
  25   2.0000      -0.619787       -16.8653
  26   2.0000      -0.526639       -14.3306
  27   2.0000      -0.494928       -13.4677
  28   2.0000      -0.494888       -13.4666
  29   2.0000      -0.475952       -12.9513
  30   2.0000      -0.464499       -12.6396
  31   2.0000      -0.464471       -12.6389
  32   2.0000      -0.461480       -12.5575
  33   2.0000      -0.409250       -11.1363
  34   2.0000      -0.408416       -11.1136
  35   2.0000      -0.408388       -11.1128
  36   2.0000      -0.381484       -10.3807
  37   2.0000      -0.373685       -10.1685
  38   2.0000      -0.373625       -10.1668
  39   2.0000      -0.342398        -9.3171
  40   2.0000      -0.342340        -9.3155
  41   2.0000      -0.318895        -8.6776
  42   2.0000      -0.315865        -8.5951
  43   2.0000      -0.315859        -8.5950
  44   2.0000      -0.308604        -8.3976
  45   2.0000      -0.304826        -8.2947
  46   2.0000      -0.303465        -8.2577
  47   2.0000      -0.303463        -8.2576
  48   2.0000      -0.301193        -8.1959
  49   2.0000      -0.301184        -8.1956
  50   2.0000      -0.246639        -6.7114
  51   0.0000      -0.043526        -1.1844
  52   0.0000      -0.043498        -1.1836
  53   0.0000      -0.035676        -0.9708
  54   0.0000      -0.021989        -0.5984
  55   0.0000      -0.021983        -0.5982

MULLIKEN ATOMIC CHARGES
-----------------------
   0 C :    0.069212
   1 C :   -0.214317
   2 P :    0.159394
   3 C :   -0.214522
   4 C :    0.069368
   5 C :   -0.262248
   6 N :    0.057010
   7 C :   -0.214518
   8 C :    0.069091
   9 C :   -0.262182
  10 N :    0.057012
  11 C :   -0.262232
  12 N :    0.056967
  13 H :    0.075521
  14 H :    0.069321
  15 H :    0.073181
  16 H :    0.079237
  17 H :    0.073219
  18 H :    0.079315
  19 H :    0.069313
  20 H :    0.075541
  21 H :    0.079318
  22 H :    0.073157
  23 H :    0.069267
  24 H :    0.075573
Sum of atomic charges:   -0.0000000

LOEWDIN ATOMIC CHARGES
----------------------
   0 C :   -0.070468
   1 C :   -0.170918
   2 P :    0.449225
   3 C :   -0.170823
   4 C :   -0.070458
   5 C :   -0.041932
   6 N :   -0.064377
   7 C :   -0.170931
   8 C :   -0.070445
   9 C :   -0.041916
  10 N :   -0.064389
  11 C :   -0.041943
  12 N :   -0.064398
  13 H :    0.063752
  14 H :    0.059468
  15 H :    0.035559
  16 H :    0.039167
  17 H :    0.035531
  18 H :    0.039152
  19 H :    0.059462
  20 H :    0.063768
  21 H :    0.039174
  22 H :    0.035549
  23 H :    0.059430
  24 H :    0.063755

  Mayer bond orders larger than 0.100000
B(  0-C ,  1-C ) :   1.0566 B(  0-C , 11-C ) :   1.1502 B(  0-C , 13-H ) :   0.8937
B(  0-C , 14-H ) :   0.8913 B(  1-C ,  2-P ) :   0.9750 B(  1-C , 15-H ) :   0.9214
B(  1-C , 16-H ) :   0.9330 B(  2-P ,  3-C ) :   0.9751 B(  2-P ,  7-C ) :   0.9751
B(  3-C ,  4-C ) :   1.0566 B(  3-C , 17-H ) :   0.9214 B(  3-C , 18-H ) :   0.9330
B(  4-C ,  5-C ) :   1.1504 B(  4-C , 19-H ) :   0.8912 B(  4-C , 20-H ) :   0.8936
B(  5-C ,  6-N ) :   3.0275 B(  7-C ,  8-C ) :   1.0568 B(  7-C , 21-H ) :   0.9331
B(  7-C , 22-H ) :   0.9214 B(  8-C ,  9-C ) :   1.1504 B(  8-C , 23-H ) :   0.8913
B(  8-C , 24-H ) :   0.8936 B(  9-C , 10-N ) :   3.0275 B( 11-C , 12-N ) :   3.0275

Dispersion correction           -0.043960527
FINAL SINGLE POINT ENERGY      -855.331251115099

DIPOLE MOMENT
-------------

Method             : SCF
Type of density    : Electron Density
Multiplicity       :   1
Irrep              :   0
Energy             :  -855.2872905884628381 Eh
Relativity type    :
Basis              : AO
                                X                 Y                 Z
Electronic contribution:     -0.003113414      -0.063820282       0.160081220
Nuclear contribution   :      0.012686297      -0.474834718       1.071986102
                        -----------------------------------------
Total Dipole Moment    :      0.009572882      -0.538655000       1.232067322
                        -----------------------------------------
Magnitude (a.u.)       :      1.344704702
Magnitude (Debye)      :      3.417967723

Rotational constants in cm-1:             0.014953             0.014924             0.007917
Rotational constants in MHz :           448.266234           447.398039           237.337926

                             ****ORCA TERMINATED NORMALLY****
TOTAL RUN TIME: 0 days 0 hours 0 minutes 44 seconds 299 msec
