                         Program Version 6.0.0  -   RELEASE   -
|  1> ! RIJONX B3LYP def2-SVP D3BJ TIGHTSCF Opt
|  2> %pal
|  3> nprocs 6
|  4> end
|  5>
|  6> * xyz 0 1
|  7> C      0.323191    5.659333    0.730157
|  8> C      0.810007    5.054557   -0.577663
|  9> C      0.821189    3.523594   -0.579405
| 10> C     -0.578952    2.908586   -0.493459
| 11> C     -0.563726    1.374292   -0.516190
| 12> C     -0.248919    0.799733   -1.896407
| 13> P     -0.065597   -1.019048   -2.047778
| 14> C      1.676697   -1.354860   -1.581582
| 15> C      2.180018   -0.761149   -0.271507
| 16> C      3.605005   -1.233737    0.038484
| 17> C      4.118083   -0.621869    1.344138
| 18> C      5.498500   -1.138647    1.754520
| 19> C      6.607570   -0.735975    0.794942
| 20> C     -1.019232   -1.741350   -0.659412
| 21> C     -2.526130   -1.730031   -0.926913
| 22> C     -3.299774   -2.325114    0.252351
| 23> C     -4.806232   -2.323535   -0.012391
| 24> C     -5.578263   -2.915420    1.166512
| 25> C     -7.076278   -2.917117    0.906896
| 26> H     -0.734857    5.443172    0.903649
| 27> H      0.899401    5.277527    1.578775
| 28> H      0.437797    6.747866    0.705507
| 29> H      0.191811    5.424506   -1.403863
| 30> H      1.831344    5.408041   -0.763617
| 31> H      1.314249    3.196135   -1.500958
| 32> H      1.435936    3.160434    0.253132
| 33> H     -1.052956    3.220617    0.444230
| 34> H     -1.207500    3.286720   -1.308513
| 35> H      0.132501    1.014141    0.246478
| 36> H     -1.558847    1.034625   -0.205113
| 37> H     -1.062769    1.090848   -2.572083
| 38> H      0.657322    1.254243   -2.308651
| 39> H      1.801487   -2.444112   -1.555733
| 40> H      2.312681   -0.994478   -2.399169
| 41> H      2.183305    0.332787   -0.333988
| 42> H      1.523166   -1.041647    0.559357
| 43> H      4.263548   -0.954527   -0.791595
| 44> H      3.620852   -2.327623    0.114459
| 45> H      3.411853   -0.854686    2.150785
| 46> H      4.146095    0.471015    1.255209
| 47> H      5.475743   -2.230574    1.848510
| 48> H      5.736669   -0.740206    2.748017
| 49> H      7.578781   -1.049400    1.191279
| 50> H      6.482444   -1.207836   -0.183941
| 51> H      6.632788    0.349472    0.656365
| 52> H     -0.696723   -2.782001   -0.533675
| 53> H     -0.800276   -1.235811    0.285656
| 54> H     -2.878239   -0.707680   -1.110743
| 55> H     -2.748669   -2.306613   -1.834293
| 56> H     -2.959978   -3.351954    0.434131
| 57> H     -3.086096   -1.747570    1.159972
| 58> H     -5.020443   -2.901893   -0.919438
| 59> H     -5.146251   -1.296978   -0.196034
| 60> H     -5.244418   -3.942932    1.352305
| 61> H     -5.371447   -2.337720    2.074906
| 62> H     -7.320478   -3.514841    0.022864
| 63> H     -7.448106   -1.899871    0.747711
| 64> H     -7.608875   -3.343440    1.762815
| 65> **                         ****END OF INPUT****
 Total Charge           Charge          ....    0
 Multiplicity           Mult            ....    1
 Number of Electrons    NEL             ....  162
Dispersion correction           -0.098967577
FINAL SINGLE POINT ENERGY     -1049.684060087872
Dispersion correction             ... done (  0.1 sec)
Dispersion correction           -0.098210198
FINAL SINGLE POINT ENERGY     -1049.690760169849
Dispersion correction             ... done (  0.1 sec)
Dispersion correction           -0.097822082
FINAL SINGLE POINT ENERGY     -1049.691850698869
Dispersion correction             ... done (  0.1 sec)
FINAL SINGLE POINT ENERGY     -1049.691434854791
FINAL SINGLE POINT ENERGY     -1049.692147286609
FINAL SINGLE POINT ENERGY     -1049.692169171479
Dispersion correction             ... done (  0.1 sec)
Dispersion correction           -0.097936535
FINAL SINGLE POINT ENERGY     -1049.692183695887
Dispersion correction             ... done (  0.1 sec)
Dispersion correction           -0.097900888
FINAL SINGLE POINT ENERGY     -1049.692186409270
Dispersion correction             ... done (  0.1 sec)
                    ***********************HURRAY********************

CARTESIAN COORDINATES (ANGSTROEM)
---------------------------------
  C      0.470190    5.632661    0.738677
  C      0.956174    4.972990   -0.553286
  C      0.882681    3.440947   -0.552888
  C     -0.535949    2.869680   -0.453146
  C     -0.597294    1.336738   -0.517792
  C     -0.290129    0.767999   -1.908064
  P     -0.097291   -1.088649   -2.144758
  C      1.665860   -1.378309   -1.581404
  C      2.172782   -0.789764   -0.263060
  C      3.615103   -1.190460    0.059289
  C      4.130328   -0.579170    1.364716
  C      5.556422   -0.990571    1.750481
  C      6.637504   -0.511053    0.779952
  C     -1.053800   -1.791478   -0.700584
  C     -2.568172   -1.750478   -0.925302
  C     -3.369679   -2.361633    0.225721
  C     -4.881999   -2.335360    0.001667
  C     -5.687195   -2.945954    1.150533
  C     -7.196984   -2.917337    0.915518
  H     -0.599097    5.441110    0.922876
  H      1.028880    5.254395    1.612033
  H      0.605762    6.725656    0.704990
  H      0.371737    5.361240   -1.407767
  H      2.001081    5.276305   -0.741266
  H      1.365100    3.066874   -1.472334
  H      1.487096    3.046775    0.286205
  H     -0.995281    3.200013    0.493944
  H     -1.160619    3.298251   -1.259492
  H      0.094804    0.923716    0.232409
  H     -1.603184    1.006573   -0.210770
  H     -1.080178    1.089532   -2.608572
  H      0.643804    1.197128   -2.310731
  H      1.784870   -2.477375   -1.573436
  H      2.301691   -1.025591   -2.413407
  H      2.114117    0.310898   -0.301366
  H      1.517655   -1.101502    0.569083
  H      4.264937   -0.891125   -0.781970
  H      3.686495   -2.292851    0.117491
  H      3.442443   -0.860290    2.182606
  H      4.076552    0.523831    1.293545
  H      5.603455   -2.091552    1.840282
  H      5.776936   -0.596991    2.758250
  H      7.644390   -0.779367    1.138219
  H      6.518060   -0.953330   -0.222141
  H      6.607064    0.585852    0.662610
  H     -0.723345   -2.840822   -0.601123
  H     -0.794806   -1.292649    0.247895
  H     -2.895851   -0.705730   -1.076688
  H     -2.810918   -2.275955   -1.866018
  H     -3.040047   -3.405417    0.383977
  H     -3.128232   -1.826339    1.162987
  H     -5.121272   -2.870161   -0.936523
  H     -5.209713   -1.290962   -0.158687
  H     -5.356039   -3.988389    1.310559
  H     -5.446929   -2.408903    2.086447
  H     -7.469674   -3.477530    0.005105
  H     -7.560888   -1.884002    0.785697
  H     -7.749404   -3.362117    1.758810

 Multiplicity           Mult            ....    1
 Number of Electrons    NEL             ....  162
 Basis Dimension        Dim             ....  465

ORBITAL ENERGIES
----------------

  NO   OCC          E(Eh)            E(eV)
   0   2.0000     -77.027249     -2096.0180
   1   2.0000     -10.178984      -276.9842
   2   2.0000     -10.178861      -276.9809
   3   2.0000     -10.178474      -276.9704
   4   2.0000     -10.178173      -276.9622
   5   2.0000     -10.178079      -276.9596
   6   2.0000     -10.177621      -276.9471
   7   2.0000     -10.176880      -276.9270
   8   2.0000     -10.176544      -276.9178
   9   2.0000     -10.176471      -276.9159
  10   2.0000     -10.176358      -276.9128
  11   2.0000     -10.176279      -276.9106
  12   2.0000     -10.175756      -276.8964
  13   2.0000     -10.175511      -276.8897
  14   2.0000     -10.175014      -276.8762
  15   2.0000     -10.174231      -276.8549
  16   2.0000     -10.173893      -276.8457
  17   2.0000     -10.173695      -276.8403
  18   2.0000     -10.173005      -276.8215
  19   2.0000      -6.524514      -177.5410
  20   2.0000      -4.689870      -127.6179
  21   2.0000      -4.689836      -127.6169
  22   2.0000      -4.686860      -127.5359
  23   2.0000      -0.802323       -21.8323
  24   2.0000      -0.796036       -21.6612
  25   2.0000      -0.795161       -21.6374
  26   2.0000      -0.770238       -20.9593
  27   2.0000      -0.755773       -20.5656
  28   2.0000      -0.753298       -20.4983
  29   2.0000      -0.715691       -19.4749
  30   2.0000      -0.693915       -18.8824
  31   2.0000      -0.690185       -18.7809
  32   2.0000      -0.653456       -17.7814
  33   2.0000      -0.635371       -17.2893
  34   2.0000      -0.625909       -17.0319
  35   2.0000      -0.593351       -16.1459
  36   2.0000      -0.579343       -15.7647
  37   2.0000      -0.573542       -15.6069
  38   2.0000      -0.565882       -15.3984
  39   2.0000      -0.556991       -15.1565
  40   2.0000      -0.552142       -15.0246
  41   2.0000      -0.512684       -13.9508
  42   2.0000      -0.476218       -12.9586
  43   2.0000      -0.473131       -12.8746
  44   2.0000      -0.459188       -12.4951
  45   2.0000      -0.452951       -12.3254
  46   2.0000      -0.449440       -12.2299
  47   2.0000      -0.442497       -12.0410
  48   2.0000      -0.439563       -11.9611
  49   2.0000      -0.436524       -11.8784
  50   2.0000      -0.424656       -11.5555
  51   2.0000      -0.415417       -11.3041
  52   2.0000      -0.413777       -11.2595
  53   2.0000      -0.410123       -11.1600
  54   2.0000      -0.399738       -10.8774
  55   2.0000      -0.395713       -10.7679
  56   2.0000      -0.390291       -10.6204
  57   2.0000      -0.384458       -10.4616
  58   2.0000      -0.377061       -10.2604
  59   2.0000      -0.375158       -10.2086
  60   2.0000      -0.366881        -9.9833
  61   2.0000      -0.364695        -9.9239
  62   2.0000      -0.359725        -9.7886
  63   2.0000      -0.353958        -9.6317
  64   2.0000      -0.349974        -9.5233
  65   2.0000      -0.348223        -9.4756
  66   2.0000      -0.338895        -9.2218
  67   2.0000      -0.332812        -9.0563
  68   2.0000      -0.330844        -9.0027
  69   2.0000      -0.325713        -8.8631
  70   2.0000      -0.324659        -8.8344
  71   2.0000      -0.323860        -8.8127
  72   2.0000      -0.321670        -8.7531
  73   2.0000      -0.320848        -8.7307
  74   2.0000      -0.316726        -8.6186
  75   2.0000      -0.315153        -8.5757
  76   2.0000      -0.314208        -8.5500
  77   2.0000      -0.307158        -8.3582
  78   2.0000      -0.291065        -7.9203
  79   2.0000      -0.285100        -7.7580
  80   2.0000      -0.209451        -5.6995
  81   0.0000       0.045147         1.2285
  82   0.0000       0.050516         1.3746
  83   0.0000       0.057858         1.5744
  84   0.0000       0.062883         1.7111
  85   0.0000       0.064394         1.7522

MULLIKEN ATOMIC CHARGES
-----------------------
   0 C :   -0.006722
   1 C :    0.013435
   2 C :   -0.010902
   3 C :    0.021749
   4 C :    0.049294
   5 C :   -0.161509
   6 P :    0.179473
   7 C :   -0.132165
   8 C :    0.018320
   9 C :    0.002309
  10 C :    0.015269
  11 C :    0.017016
  12 C :   -0.007387
  13 C :   -0.141301
  14 C :    0.049018
  15 C :    0.016063
  16 C :    0.004715
  17 C :   -0.005078
  18 C :    0.021046
  19 H :    0.013886
  20 H :    0.004812
  21 H :    0.008507
  22 H :   -0.005044
  23 H :   -0.005082
  24 H :   -0.004707
  25 H :   -0.004662
  26 H :   -0.006105
  27 H :   -0.013766
  28 H :   -0.005652
  29 H :   -0.003330
  30 H :    0.028099
  31 H :    0.025137
  32 H :    0.021719
  33 H :    0.023928
  34 H :    0.009295
  35 H :    0.001507
  36 H :   -0.007163
  37 H :   -0.012438
  38 H :   -0.010886
  39 H :   -0.010967
  40 H :   -0.005802
  41 H :   -0.005257
  42 H :    0.008365
  43 H :    0.013878
  44 H :    0.004918
  45 H :    0.017678
  46 H :    0.022006
  47 H :   -0.005131
  48 H :   -0.000968
  49 H :   -0.011292
  50 H :   -0.013135
  51 H :   -0.009549
  52 H :   -0.011627
  53 H :   -0.005260
  54 H :   -0.005960
  55 H :    0.005484
  56 H :    0.004795
  57 H :    0.007122
Sum of atomic charges:   -0.0000000

LOEWDIN ATOMIC CHARGES
----------------------
   0 C :   -0.059024
   1 C :   -0.036384
   2 C :   -0.036482
   3 C :   -0.031126
   4 C :   -0.042481
   5 C :   -0.186775
   6 P :    0.456584
   7 C :   -0.183869
   8 C :   -0.045047
   9 C :   -0.033200
  10 C :   -0.034322
  11 C :   -0.036910
  12 C :   -0.058920
  13 C :   -0.179209
  14 C :   -0.042488
  15 C :   -0.032357
  16 C :   -0.034010
  17 C :   -0.037422
  18 C :   -0.056470
  19 H :    0.019188
  20 H :    0.020053
  21 H :    0.022943
  22 H :    0.018041
  23 H :    0.019657
  24 H :    0.016213
  25 H :    0.015804
  26 H :    0.018065
  27 H :    0.016160
  28 H :    0.016667
  29 H :    0.019614
  30 H :    0.020743
  31 H :    0.019351
  32 H :    0.020948
  33 H :    0.020226
  34 H :    0.018717
  35 H :    0.016256
  36 H :    0.016003
  37 H :    0.016158
  38 H :    0.017785
  39 H :    0.015649
  40 H :    0.017683
  41 H :    0.019721
  42 H :    0.022921
  43 H :    0.019341
  44 H :    0.020115
  45 H :    0.020188
  46 H :    0.010716
  47 H :    0.014421
  48 H :    0.018842
  49 H :    0.016462
  50 H :    0.015503
  51 H :    0.016857
  52 H :    0.015926
  53 H :    0.017534
  54 H :    0.017201
  55 H :    0.020277
  56 H :    0.019999
  57 H :    0.021963

  Mayer bond orders larger than 0.100000
B(  0-C ,  1-C ) :   1.1048 B(  0-C , 19-H ) :   0.9695 B(  0-C , 20-H ) :   0.9695
B(  0-C , 21-H ) :   0.9647 B(  1-C ,  2-C ) :   1.0905 B(  1-C , 22-H ) :   0.9411
B(  1-C , 23-H ) :   0.9412 B(  2-C ,  3-C ) :   1.0860 B(  2-C , 24-H ) :   0.9358
B(  2-C , 25-H ) :   0.9352 B(  3-C ,  4-C ) :   1.0820 B(  3-C , 26-H ) :   0.9318
B(  3-C , 27-H ) :   0.9371 B(  4-C ,  5-C ) :   1.0503 B(  4-C , 28-H ) :   0.9334
B(  4-C , 29-H ) :   0.9276 B(  5-C ,  6-P ) :   0.9563 B(  5-C , 30-H ) :   0.9409
B(  5-C , 31-H ) :   0.9355 B(  6-P ,  7-C ) :   0.9719 B(  6-P , 13-C ) :   0.9748
B(  7-C ,  8-C ) :   1.0376 B(  7-C , 32-H ) :   0.9387 B(  7-C , 33-H ) :   0.9387
B(  8-C ,  9-C ) :   1.0767 B(  8-C , 34-H ) :   0.9336 B(  8-C , 35-H ) :   0.9394
B(  9-C , 10-C ) :   1.0808 B(  9-C , 36-H ) :   0.9373 B(  9-C , 37-H ) :   0.9382
B( 10-C , 11-C ) :   1.0899 B( 10-C , 38-H ) :   0.9352 B( 10-C , 39-H ) :   0.9383
B( 11-C , 12-C ) :   1.1042 B( 11-C , 40-H ) :   0.9413 B( 11-C , 41-H ) :   0.9401
B( 12-C , 42-H ) :   0.9646 B( 12-C , 43-H ) :   0.9698 B( 12-C , 44-H ) :   0.9698
B( 13-C , 14-C ) :   1.0605 B( 13-C , 45-H ) :   0.9379 B( 13-C , 46-H ) :   0.9162
B( 14-C , 15-C ) :   1.0877 B( 14-C , 47-H ) :   0.9333 B( 14-C , 48-H ) :   0.9330
B( 15-C , 16-C ) :   1.0834 B( 15-C , 49-H ) :   0.9386 B( 15-C , 50-H ) :   0.9364
B( 16-C , 17-C ) :   1.0842 B( 16-C , 51-H ) :   0.9400 B( 16-C , 52-H ) :   0.9396
B( 17-C , 18-C ) :   1.1058 B( 17-C , 53-H ) :   0.9430 B( 17-C , 54-H ) :   0.9429
B( 18-C , 55-H ) :   0.9687 B( 18-C , 56-H ) :   0.9686 B( 18-C , 57-H ) :   0.9646

Dispersion correction           -0.097913390
FINAL SINGLE POINT ENERGY     -1049.692187138794

DIPOLE MOMENT
-------------

Method             : SCF
Type of density    : Electron Density
Multiplicity       :   1
Irrep              :   0
Energy             : -1049.5942737490724994 Eh
Relativity type    :
Basis              : AO
                                X                 Y                 Z
Electronic contribution:     -0.621170397      -7.065629660     -12.548663439
Nuclear contribution   :      0.758883230       7.260770630      13.019311880
                        -----------------------------------------
Total Dipole Moment    :      0.137712833       0.195140971       0.470648441
                        -----------------------------------------
Magnitude (a.u.)       :      0.527782889
Magnitude (Debye)      :      1.341517492

Rotational constants in cm-1:             0.008884             0.004009             0.003167
Rotational constants in MHz :           266.349236           120.195891            94.948261

                             ****ORCA TERMINATED NORMALLY****
TOTAL RUN TIME: 0 days 0 hours 9 minutes 4 seconds 848 msec
