                         Program Version 6.0.0  -   RELEASE   -
|  1> ! RI BP86 def2-SVP D3BJ TIGHTSCF Opt
|  2> %pal
|  3> nprocs 6
|  4> end
|  5>
|  6> * xyz 0 1
|  7> C      5.934957    0.164368   -0.123062
|  8> C      4.980476   -0.744676    0.114453
|  9> C      3.561166   -0.573550   -0.222576
| 10> C      2.595104   -1.177100    0.588396
| 11> C      1.230431   -1.062461    0.290432
| 12> C      0.793658   -0.348330   -0.832589
| 13> C      1.771390    0.237873   -1.653742
| 14> C      3.135240    0.124588   -1.355738
| 15> P     -0.953950   -0.142425   -1.304907
| 16> C     -1.846228   -1.309279   -0.225769
| 17> C     -1.932869   -2.651584   -0.637734
| 18> C     -2.600322   -3.604780    0.136556
| 19> C     -3.196485   -3.232261    1.337164
| 20> C     -3.125019   -1.908656    1.761890
| 21> C     -2.456482   -0.955344    0.986661
| 22> C     -1.400575    1.497822   -0.646445
| 23> C     -2.617963    2.065285   -1.064796
| 24> C     -3.028316    3.319480   -0.604118
| 25> C     -2.226621    4.031520    0.282370
| 26> C     -1.016879    3.489591    0.706892
| 27> C     -0.607072    2.234106    0.245780
| 28> H      5.727411    1.122936   -0.586767
| 29> H      6.963040   -0.032903    0.164636
| 30> H      5.247310   -1.676379    0.608510
| 31> H      2.890554   -1.739408    1.471657
| 32> H      0.524090   -1.541803    0.963388
| 33> H      1.481519    0.794345   -2.543760
| 34> H      3.855110    0.581322   -2.030082
| 35> H     -1.474618   -2.971207   -1.572310
| 36> H     -2.653338   -4.636391   -0.201317
| 37> H     -3.717033   -3.971208    1.940365
| 38> H     -3.590157   -1.612195    2.698620
| 39> H     -2.420769    0.065659    1.357878
| 40> H     -3.265795    1.529623   -1.756884
| 41> H     -3.973780    3.737124   -0.940044
| 42> H     -2.542933    5.007248    0.641190
| 43> H     -0.386399    4.042234    1.398857
| 44> H      0.342147    1.846817    0.606946
| 45> **                         ****END OF INPUT****
 Total Charge           Charge          ....    0
 Multiplicity           Mult            ....    1
 Number of Electrons    NEL             ....  152
Dispersion correction           -0.089336444
FINAL SINGLE POINT ENERGY     -1113.152504725650
Dispersion correction             ... done (  0.1 sec)
Dispersion correction           -0.089800882
FINAL SINGLE POINT ENERGY     -1113.158800198487
Dispersion correction             ... done (  0.1 sec)
Dispersion correction           -0.090016078
FINAL SINGLE POINT ENERGY     -1113.159931652952
Dispersion correction             ... done (  0.1 sec)
FINAL SINGLE POINT ENERGY     -1113.160531994417
FINAL SINGLE POINT ENERGY     -1113.160759621539
FINAL SINGLE POINT ENERGY     -1113.160878934336
FINAL SINGLE POINT ENERGY     -1113.160953177948
FINAL SINGLE POINT ENERGY     -1113.160978046640
Dispersion correction             ... done (  0.1 sec)
Dispersion correction           -0.090024250
FINAL SINGLE POINT ENERGY     -1113.160985812940
Dispersion correction             ... done (  0.1 sec)
Dispersion correction           -0.090009408
FINAL SINGLE POINT ENERGY     -1113.160986687898
Dispersion correction             ... done (  0.1 sec)
                    ***********************HURRAY********************

CARTESIAN COORDINATES (ANGSTROEM)
---------------------------------
  C      6.008173   -0.050145   -0.295568
  C      4.925662   -0.608616    0.288991
  C      3.522064   -0.494068   -0.137276
  C      2.517426   -1.154563    0.608195
  C      1.164403   -1.072117    0.250612
  C      0.769890   -0.326215   -0.878114
  C      1.770418    0.323159   -1.640840
  C      3.115766    0.250601   -1.273259
  P     -0.980159   -0.142850   -1.445893
  C     -1.847180   -1.304550   -0.293542
  C     -1.907555   -2.663277   -0.676554
  C     -2.527208   -3.611375    0.151449
  C     -3.114300   -3.209824    1.364313
  C     -3.072076   -1.858238    1.745249
  C     -2.439352   -0.909809    0.924307
  C     -1.421143    1.493260   -0.697881
  C     -2.642900    2.075880   -1.102716
  C     -3.061355    3.302615   -0.565637
  C     -2.253160    3.974004    0.368677
  C     -1.029683    3.408857    0.765431
  C     -0.615472    2.173813    0.239196
  H      5.935240    0.577653   -1.197967
  H      7.016432   -0.206136    0.116270
  H      5.081913   -1.226002    1.191746
  H      2.809510   -1.741109    1.494266
  H      0.405460   -1.587723    0.857585
  H      1.480402    0.898771   -2.534963
  H      3.868220    0.773004   -1.882995
  H     -1.458803   -2.976947   -1.633184
  H     -2.561233   -4.668150   -0.155726
  H     -3.609220   -3.951107    2.010450
  H     -3.531992   -1.537911    2.693133
  H     -2.400232    0.145755    1.232400
  H     -3.270958    1.556931   -1.845114
  H     -4.018820    3.742545   -0.885061
  H     -2.575632    4.941228    0.783903
  H     -0.391931    3.931318    1.495448
  H      0.339386    1.731342    0.560670

 Multiplicity           Mult            ....    1
 Number of Electrons    NEL             ....  152
 Basis Dimension        Dim             ....  383

ORBITAL ENERGIES
----------------

  NO   OCC          E(Eh)            E(eV)
   0   2.0000     -76.347146     -2077.5115
   1   2.0000      -9.930430      -270.2207
   2   2.0000      -9.927198      -270.1328
   3   2.0000      -9.927155      -270.1316
   4   2.0000      -9.927089      -270.1298
   5   2.0000      -9.925884      -270.0970
   6   2.0000      -9.925246      -270.0797
   7   2.0000      -9.924832      -270.0684
   8   2.0000      -9.924746      -270.0661
   9   2.0000      -9.924163      -270.0502
  10   2.0000      -9.924136      -270.0495
  11   2.0000      -9.923875      -270.0424
  12   2.0000      -9.923837      -270.0413
  13   2.0000      -9.923439      -270.0305
  14   2.0000      -9.923425      -270.0301
  15   2.0000      -9.923339      -270.0278
  16   2.0000      -9.923128      -270.0220
  17   2.0000      -9.922812      -270.0134
  18   2.0000      -9.922702      -270.0104
  19   2.0000      -9.922672      -270.0096
  20   2.0000      -9.918222      -269.8885
  21   2.0000      -6.315463      -171.8525
  22   2.0000      -4.536898      -123.4553
  23   2.0000      -4.536883      -123.4549
  24   2.0000      -4.533324      -123.3580
  25   2.0000      -0.781776       -21.2732
  26   2.0000      -0.774555       -21.0767
  27   2.0000      -0.771253       -20.9869
  28   2.0000      -0.717136       -19.5143
  29   2.0000      -0.689832       -18.7713
  30   2.0000      -0.673697       -18.3322
  31   2.0000      -0.671758       -18.2795
  32   2.0000      -0.671246       -18.2655
  33   2.0000      -0.666723       -18.1424
  34   2.0000      -0.652342       -17.7511
  35   2.0000      -0.589091       -16.0300
  36   2.0000      -0.556851       -15.1527
  37   2.0000      -0.545878       -14.8541
  38   2.0000      -0.543872       -14.7995
  39   2.0000      -0.538746       -14.6600
  40   2.0000      -0.533997       -14.5308
  41   2.0000      -0.506133       -13.7726
  42   2.0000      -0.499345       -13.5879
  43   2.0000      -0.466371       -12.6906
  44   2.0000      -0.460791       -12.5388
  45   2.0000      -0.441003       -12.0003
  46   2.0000      -0.422709       -11.5025
  47   2.0000      -0.409525       -11.1438
  48   2.0000      -0.409134       -11.1331
  49   2.0000      -0.402090       -10.9414
  50   2.0000      -0.400454       -10.8969
  51   2.0000      -0.395181       -10.7534
  52   2.0000      -0.387949       -10.5566
  53   2.0000      -0.377637       -10.2760
  54   2.0000      -0.376942       -10.2571
  55   2.0000      -0.375549       -10.2192
  56   2.0000      -0.367437        -9.9985
  57   2.0000      -0.362559        -9.8657
  58   2.0000      -0.343258        -9.3405
  59   2.0000      -0.337102        -9.1730
  60   2.0000      -0.334037        -9.0896
  61   2.0000      -0.330054        -8.9812
  62   2.0000      -0.317759        -8.6467
  63   2.0000      -0.306996        -8.3538
  64   2.0000      -0.306110        -8.3297
  65   2.0000      -0.300760        -8.1841
  66   2.0000      -0.290779        -7.9125
  67   2.0000      -0.289000        -7.8641
  68   2.0000      -0.276582        -7.5262
  69   2.0000      -0.247804        -6.7431
  70   2.0000      -0.239270        -6.5109
  71   2.0000      -0.238155        -6.4805
  72   2.0000      -0.233081        -6.3425
  73   2.0000      -0.232005        -6.3132
  74   2.0000      -0.216450        -5.8899
  75   2.0000      -0.191919        -5.2224
  76   0.0000      -0.079648        -2.1673
  77   0.0000      -0.059436        -1.6173
  78   0.0000      -0.056572        -1.5394
  79   0.0000      -0.049016        -1.3338
  80   0.0000      -0.041113        -1.1187

MULLIKEN ATOMIC CHARGES
-----------------------
   0 C :   -0.061624
   1 C :   -0.021107
   2 C :    0.091465
   3 C :   -0.037243
   4 C :    0.014384
   5 C :   -0.160259
   6 C :    0.019836
   7 C :   -0.030190
   8 P :    0.304202
   9 C :   -0.163607
  10 C :    0.013665
  11 C :   -0.000587
  12 C :    0.003155
  13 C :    0.003526
  14 C :    0.007516
  15 C :   -0.163870
  16 C :    0.016289
  17 C :   -0.000892
  18 C :    0.003329
  19 C :    0.003227
  20 C :    0.006310
  21 H :    0.034755
  22 H :    0.042277
  23 H :    0.001879
  24 H :   -0.008899
  25 H :    0.016179
  26 H :    0.002009
  27 H :   -0.010917
  28 H :    0.005077
  29 H :    0.005787
  30 H :    0.005320
  31 H :    0.003350
  32 H :    0.017405
  33 H :    0.004698
  34 H :    0.005736
  35 H :    0.005370
  36 H :    0.003745
  37 H :    0.018703
Sum of atomic charges:   -0.0000000

LOEWDIN ATOMIC CHARGES
----------------------
   0 C :   -0.055419
   1 C :   -0.029789
   2 C :   -0.030048
   3 C :   -0.022886
   4 C :   -0.035218
   5 C :   -0.172848
   6 C :   -0.031676
   7 C :   -0.017597
   8 P :    0.501470
   9 C :   -0.172527
  10 C :   -0.034467
  11 C :   -0.031012
  12 C :   -0.029483
  13 C :   -0.030390
  14 C :   -0.034737
  15 C :   -0.172555
  16 C :   -0.033895
  17 C :   -0.030809
  18 C :   -0.029338
  19 C :   -0.030426
  20 C :   -0.035263
  21 H :    0.025973
  22 H :    0.032747
  23 H :    0.033218
  24 H :    0.031456
  25 H :    0.036445
  26 H :    0.032068
  27 H :    0.031508
  28 H :    0.031364
  29 H :    0.033951
  30 H :    0.033097
  31 H :    0.033498
  32 H :    0.035714
  33 H :    0.031299
  34 H :    0.033929
  35 H :    0.033121
  36 H :    0.033649
  37 H :    0.035877

  Mayer bond orders larger than 0.100000
B(  0-C ,  1-C ) :   1.9028 B(  0-C , 21-H ) :   0.9378 B(  0-C , 22-H ) :   0.9399
B(  1-C ,  2-C ) :   1.1021 B(  1-C , 23-H ) :   0.9517 B(  2-C ,  3-C ) :   1.3266
B(  2-C ,  7-C ) :   1.3227 B(  3-C ,  4-C ) :   1.3678 B(  3-C , 24-H ) :   0.9776
B(  4-C ,  5-C ) :   1.3789 B(  4-C , 25-H ) :   0.9657 B(  5-C ,  6-C ) :   1.3278
B(  5-C ,  8-P ) :   0.9368 B(  6-C ,  7-C ) :   1.4307 B(  6-C , 26-H ) :   0.9684
B(  7-C , 27-H ) :   0.9717 B(  8-P ,  9-C ) :   0.9351 B(  8-P , 15-C ) :   0.9352
B(  9-C , 10-C ) :   1.3619 B(  9-C , 14-C ) :   1.3836 B( 10-C , 11-C ) :   1.4032
B( 10-C , 28-H ) :   0.9716 B( 11-C , 12-C ) :   1.3748 B( 11-C , 29-H ) :   0.9759
B( 12-C , 13-C ) :   1.3792 B( 12-C , 30-H ) :   0.9756 B( 13-C , 14-C ) :   1.3821
B( 13-C , 31-H ) :   0.9747 B( 14-C , 32-H ) :   0.9667 B( 15-C , 16-C ) :   1.3618
B( 15-C , 20-C ) :   1.3822 B( 16-C , 17-C ) :   1.4034 B( 16-C , 33-H ) :   0.9716
B( 17-C , 18-C ) :   1.3748 B( 17-C , 34-H ) :   0.9758 B( 18-C , 19-C ) :   1.3791
B( 18-C , 35-H ) :   0.9757 B( 19-C , 20-C ) :   1.3818 B( 19-C , 36-H ) :   0.9748
B( 20-C , 37-H ) :   0.9667

Dispersion correction           -0.090012240
FINAL SINGLE POINT ENERGY     -1113.160987089864

DIPOLE MOMENT
-------------

Method             : SCF
Type of density    : Electron Density
Multiplicity       :   1
Irrep              :   0
Energy             : -1113.0709748498416047 Eh
Relativity type    :
Basis              : AO
                                X                 Y                 Z
Electronic contribution:     -6.559293650      -0.806420590      -5.678278220
Nuclear contribution   :      6.562539520       0.879402477       6.204123181
                        -----------------------------------------
Total Dipole Moment    :      0.003245870       0.072981887       0.525844961
                        -----------------------------------------
Magnitude (a.u.)       :      0.530895295
Magnitude (Debye)      :      1.349428600

Rotational constants in cm-1:             0.011622             0.007082             0.005051
Rotational constants in MHz :           348.414691           212.302982           151.411133

                             ****ORCA TERMINATED NORMALLY****
TOTAL RUN TIME: 0 days 0 hours 3 minutes 20 seconds 875 msec
