                         Program Version 6.0.0  -   RELEASE   -
|  1> ! RI BP86 def2-SVP D3BJ TIGHTSCF Opt
|  2> %pal
|  3> nprocs 6
|  4> end
|  5>
|  6> * xyz 0 1
|  7> C     -0.360491    6.580236   -1.093394
|  8> O      0.317148    5.444077   -1.615397
|  9> C      0.178184    4.271647   -0.925783
| 10> C      0.877511    3.190299   -1.465988
| 11> C      0.824833    1.929840   -0.864427
| 12> C      0.064148    1.730149    0.293769
| 13> C     -0.633231    2.821860    0.832990
| 14> C     -0.578362    4.082675    0.229231
| 15> P     -0.065084    0.128448    1.112063
| 16> O     -0.151255    0.298512    2.620450
| 17> C      1.380142   -0.850653    0.659921
| 18> C      1.383030   -1.743481   -0.418402
| 19> C      2.536943   -2.466424   -0.733429
| 20> C      3.704135   -2.315917    0.018369
| 21> C      3.708881   -1.432217    1.095950
| 22> C      2.555354   -0.706938    1.413016
| 23> O      4.756478   -3.081792   -0.400530
| 24> C      5.962838   -2.978548    0.345508
| 25> C     -1.530728   -0.708898    0.477644
| 26> C     -2.095326   -0.408343   -0.767678
| 27> C     -3.223931   -1.099780   -1.216644
| 28> C     -3.810324   -2.097843   -0.435488
| 29> C     -3.257119   -2.400735    0.807232
| 30> C     -2.127090   -1.710515    1.258698
| 31> O     -4.906288   -2.692582   -0.996399
| 32> C     -5.551233   -3.702546   -0.230533
| 33> H     -0.143359    7.429149   -1.748868
| 34> H     -1.444842    6.427775   -1.094383
| 35> H      0.003378    6.831545   -0.091614
| 36> H      1.472982    3.332720   -2.365172
| 37> H      1.385270    1.114564   -1.314375
| 38> H     -1.222927    2.687256    1.739399
| 39> H     -1.135996    4.891755    0.689097
| 40> H      0.494336   -1.890789   -1.026460
| 41> H      2.526044   -3.157773   -1.573263
| 42> H      4.589121   -1.283214    1.712404
| 43> H      2.568728   -0.023518    2.261660
| 44> H      5.814719   -3.298017    1.382386
| 45> H      6.695424   -3.652578   -0.108855
| 46> H      6.370363   -1.963298    0.298096
| 47> H     -1.670184    0.363141   -1.404298
| 48> H     -3.653738   -0.856201   -2.185836
| 49> H     -3.678148   -3.164710    1.452304
| 50> H     -1.706844   -1.951392    2.234816
| 51> H     -5.937219   -3.298329    0.711140
| 52> H     -4.881885   -4.550750   -0.052809
| 53> H     -6.404386   -4.067870   -0.810283
| 54> **                         ****END OF INPUT****
 Total Charge           Charge          ....    0
 Multiplicity           Mult            ....    1
 Number of Electrons    NEL             ....  194
Dispersion correction           -0.103861806
FINAL SINGLE POINT ENERGY     -1454.348129140076
Dispersion correction             ... done (  0.1 sec)
Dispersion correction           -0.103744458
FINAL SINGLE POINT ENERGY     -1454.356046774370
Dispersion correction             ... done (  0.1 sec)
Dispersion correction           -0.103802667
FINAL SINGLE POINT ENERGY     -1454.357710286268
Dispersion correction             ... done (  0.1 sec)
FINAL SINGLE POINT ENERGY     -1454.357992795649
Dispersion correction             ... done (  0.1 sec)
Dispersion correction           -0.103681419
FINAL SINGLE POINT ENERGY     -1454.358061744982
Dispersion correction             ... done (  0.1 sec)
Dispersion correction           -0.103660656
FINAL SINGLE POINT ENERGY     -1454.358072813535
Dispersion correction             ... done (  0.1 sec)
                    ***********************HURRAY********************

CARTESIAN COORDINATES (ANGSTROEM)
---------------------------------
  C     -0.379663    6.583683   -1.083484
  O      0.193460    5.421010   -1.659188
  C      0.116375    4.250727   -0.968434
  C      0.716203    3.128506   -1.585230
  C      0.689271    1.882516   -0.953915
  C      0.056424    1.727461    0.299359
  C     -0.523833    2.851049    0.916435
  C     -0.501079    4.108079    0.293988
  P     -0.064535    0.139021    1.193759
  O     -0.149334    0.308287    2.702733
  C      1.385256   -0.837236    0.662121
  C      1.434070   -1.591329   -0.531266
  C      2.590816   -2.292540   -0.880174
  C      3.723219   -2.261119   -0.033785
  C      3.675349   -1.525685    1.171215
  C      2.508723   -0.823264    1.508899
  O      4.802365   -2.974216   -0.457461
  C      5.963402   -2.989470    0.357217
  C     -1.517264   -0.713050    0.485822
  C     -1.968293   -0.533192   -0.840622
  C     -3.073743   -1.242999   -1.315705
  C     -3.758457   -2.143120   -0.466740
  C     -3.326041   -2.313009    0.867221
  C     -2.212686   -1.596597    1.331504
  O     -4.821906   -2.788918   -1.018708
  C     -5.551294   -3.699836   -0.212726
  H     -0.203594    7.405973   -1.801188
  H     -1.475312    6.469533   -0.924196
  H      0.097310    6.841790   -0.111606
  H      1.207557    3.269045   -2.558977
  H      1.182471    1.022508   -1.433109
  H     -0.985704    2.730484    1.908771
  H     -0.958579    4.968120    0.801070
  H      0.550733   -1.644801   -1.186435
  H      2.645936   -2.887526   -1.803400
  H      4.535653   -1.499735    1.853367
  H      2.452250   -0.261190    2.454207
  H      5.759905   -3.430132    1.358750
  H      6.705302   -3.617717   -0.169218
  H      6.384935   -1.968710    0.495517
  H     -1.459278    0.184064   -1.503172
  H     -3.441491   -1.113813   -2.344028
  H     -3.851829   -2.993162    1.550647
  H     -1.875918   -1.706093    2.374203
  H     -6.008534   -3.198097    0.669351
  H     -4.912843   -4.538429    0.145026
  H     -6.355778   -4.106871   -0.852577

 Multiplicity           Mult            ....    1
 Number of Electrons    NEL             ....  194
 Basis Dimension        Dim             ....  473

ORBITAL ENERGIES
----------------

  NO   OCC          E(Eh)            E(eV)
   0   2.0000     -76.404103     -2079.0613
   1   2.0000     -18.818631      -512.0810
   2   2.0000     -18.818605      -512.0803
   3   2.0000     -18.818600      -512.0801
   4   2.0000     -18.705661      -509.0069
   5   2.0000      -9.979387      -271.5529
   6   2.0000      -9.979381      -271.5528
   7   2.0000      -9.979349      -271.5519
   8   2.0000      -9.976117      -271.4639
   9   2.0000      -9.976099      -271.4635
  10   2.0000      -9.976091      -271.4632
  11   2.0000      -9.925383      -270.0834
  12   2.0000      -9.925336      -270.0821
  13   2.0000      -9.925302      -270.0812
  14   2.0000      -9.922360      -270.0011
  15   2.0000      -9.922333      -270.0004
  16   2.0000      -9.922249      -269.9981
  17   2.0000      -9.920034      -269.9379
  18   2.0000      -9.920019      -269.9374
  19   2.0000      -9.919988      -269.9366
  20   2.0000      -9.917821      -269.8776
  21   2.0000      -9.917785      -269.8766
  22   2.0000      -9.917765      -269.8761
  23   2.0000      -9.912680      -269.7377
  24   2.0000      -9.912649      -269.7369
  25   2.0000      -9.912559      -269.7344
  26   2.0000      -6.361717      -173.1111
  27   2.0000      -4.582928      -124.7078
  28   2.0000      -4.582920      -124.7076
  29   2.0000      -4.582812      -124.7047
  30   2.0000      -0.978478       -26.6257
  31   2.0000      -0.978471       -26.6256
  32   2.0000      -0.978463       -26.6253
  33   2.0000      -0.839251       -22.8372
  34   2.0000      -0.772965       -21.0334
  35   2.0000      -0.769882       -20.9496
  36   2.0000      -0.769847       -20.9486
  37   2.0000      -0.696431       -18.9508
  38   2.0000      -0.686179       -18.6719
  39   2.0000      -0.686144       -18.6709
  40   2.0000      -0.675954       -18.3936
  41   2.0000      -0.670812       -18.2537
  42   2.0000      -0.670780       -18.2529
  43   2.0000      -0.640058       -17.4169
  44   2.0000      -0.626573       -17.0499
  45   2.0000      -0.626509       -17.0482
  46   2.0000      -0.565108       -15.3774
  47   2.0000      -0.549551       -14.9540
  48   2.0000      -0.548425       -14.9234
  49   2.0000      -0.548330       -14.9208
  50   2.0000      -0.528812       -14.3897
  51   2.0000      -0.528762       -14.3883
  52   2.0000      -0.497710       -13.5434
  53   2.0000      -0.487879       -13.2759
  54   2.0000      -0.487844       -13.2749
  55   2.0000      -0.483956       -13.1691
  56   2.0000      -0.441856       -12.0235
  57   2.0000      -0.441730       -12.0201
  58   2.0000      -0.439231       -11.9521
  59   2.0000      -0.424599       -11.5539
  60   2.0000      -0.424571       -11.5532
  61   2.0000      -0.424370       -11.5477
  62   2.0000      -0.421856       -11.4793
  63   2.0000      -0.421767       -11.4769
  64   2.0000      -0.400716       -10.9040
  65   2.0000      -0.398312       -10.8386
  66   2.0000      -0.398189       -10.8353
  67   2.0000      -0.379815       -10.3353
  68   2.0000      -0.378039       -10.2870
  69   2.0000      -0.378010       -10.2862
  70   2.0000      -0.376019       -10.2320
  71   2.0000      -0.372018       -10.1231
  72   2.0000      -0.371946       -10.1212
  73   2.0000      -0.367412        -9.9978
  74   2.0000      -0.345059        -9.3895
  75   2.0000      -0.345014        -9.3883
  76   2.0000      -0.341230        -9.2853
  77   2.0000      -0.325594        -8.8599
  78   2.0000      -0.325517        -8.8578
  79   2.0000      -0.323306        -8.7976
  80   2.0000      -0.312470        -8.5027
  81   2.0000      -0.312288        -8.4978
  82   2.0000      -0.298193        -8.1143
  83   2.0000      -0.288541        -7.8516
  84   2.0000      -0.288443        -7.8489
  85   2.0000      -0.287777        -7.8308
  86   2.0000      -0.285724        -7.7749
  87   2.0000      -0.285675        -7.7736
  88   2.0000      -0.280752        -7.6397
  89   2.0000      -0.234619        -6.3843
  90   2.0000      -0.233921        -6.3653
  91   2.0000      -0.233848        -6.3633
  92   2.0000      -0.212810        -5.7909
  93   2.0000      -0.212756        -5.7894
  94   2.0000      -0.200954        -5.4682
  95   2.0000      -0.200760        -5.4630
  96   2.0000      -0.197591        -5.3767
  97   0.0000      -0.050400        -1.3714
  98   0.0000      -0.050270        -1.3679
  99   0.0000      -0.049508        -1.3472
 100   0.0000      -0.039650        -1.0789
 101   0.0000      -0.039503        -1.0749

MULLIKEN ATOMIC CHARGES
-----------------------
   0 C :    0.102818
   1 O :   -0.268499
   2 C :    0.194117
   3 C :   -0.021488
   4 C :   -0.018247
   5 C :   -0.113890
   6 C :   -0.000968
   7 C :   -0.085141
   8 P :    0.633304
   9 O :   -0.464555
  10 C :   -0.113780
  11 C :   -0.017811
  12 C :   -0.021486
  13 C :    0.193935
  14 C :   -0.085175
  15 C :   -0.001716
  16 O :   -0.268513
  17 C :    0.102807
  18 C :   -0.113774
  19 C :   -0.017645
  20 C :   -0.021366
  21 C :    0.193957
  22 C :   -0.085150
  23 C :   -0.001582
  24 O :   -0.268504
  25 C :    0.102835
  26 H :    0.055336
  27 H :    0.043327
  28 H :    0.044170
  29 H :   -0.001956
  30 H :    0.005695
  31 H :    0.017716
  32 H :   -0.009002
  33 H :    0.005132
  34 H :   -0.001937
  35 H :   -0.008964
  36 H :    0.017849
  37 H :    0.044158
  38 H :    0.055366
  39 H :    0.043396
  40 H :    0.005732
  41 H :   -0.001954
  42 H :   -0.008972
  43 H :    0.017703
  44 H :    0.044097
  45 H :    0.043325
  46 H :    0.055300
Sum of atomic charges:   -0.0000000

LOEWDIN ATOMIC CHARGES
----------------------
   0 C :    0.057642
   1 O :   -0.076508
   2 C :    0.046463
   3 C :   -0.052267
   4 C :   -0.029399
   5 C :   -0.205087
   6 C :   -0.006913
   7 C :   -0.080712
   8 P :    0.885896
   9 O :   -0.498284
  10 C :   -0.205170
  11 C :   -0.029337
  12 C :   -0.052246
  13 C :    0.046441
  14 C :   -0.080816
  15 C :   -0.006988
  16 O :   -0.076518
  17 C :    0.057685
  18 C :   -0.205066
  19 C :   -0.029418
  20 C :   -0.052234
  21 C :    0.046463
  22 C :   -0.080782
  23 C :   -0.006986
  24 O :   -0.076493
  25 C :    0.057596
  26 H :    0.033520
  27 H :    0.020771
  28 H :    0.021043
  29 H :    0.037504
  30 H :    0.033755
  31 H :    0.038223
  32 H :    0.032925
  33 H :    0.033612
  34 H :    0.037513
  35 H :    0.032927
  36 H :    0.038299
  37 H :    0.021055
  38 H :    0.033527
  39 H :    0.020781
  40 H :    0.033626
  41 H :    0.037499
  42 H :    0.032918
  43 H :    0.038246
  44 H :    0.021000
  45 H :    0.020784
  46 H :    0.033509

  Mayer bond orders larger than 0.100000
B(  0-C ,  1-O ) :   0.9765 B(  0-C , 26-H ) :   0.9715 B(  0-C , 27-H ) :   0.9583
B(  0-C , 28-H ) :   0.9583 B(  1-O ,  2-C ) :   1.1544 B(  2-C ,  3-C ) :   1.3309
B(  2-C ,  7-C ) :   1.2876 B(  3-C ,  4-C ) :   1.4035 B(  3-C , 29-H ) :   0.9788
B(  4-C ,  5-C ) :   1.3292 B(  4-C , 30-H ) :   0.9649 B(  5-C ,  6-C ) :   1.3809
B(  5-C ,  8-P ) :   0.8859 B(  6-C ,  7-C ) :   1.3523 B(  6-C , 31-H ) :   0.9689
B(  7-C , 32-H ) :   0.9806 B(  8-P ,  9-O ) :   1.8691 B(  8-P , 10-C ) :   0.8853
B(  8-P , 18-C ) :   0.8865 B( 10-C , 11-C ) :   1.3274 B( 10-C , 15-C ) :   1.3819
B( 11-C , 12-C ) :   1.4042 B( 11-C , 33-H ) :   0.9648 B( 12-C , 13-C ) :   1.3304
B( 12-C , 34-H ) :   0.9789 B( 13-C , 14-C ) :   1.2881 B( 13-C , 16-O ) :   1.1545
B( 14-C , 15-C ) :   1.3513 B( 14-C , 35-H ) :   0.9807 B( 15-C , 36-H ) :   0.9689
B( 16-O , 17-C ) :   0.9764 B( 17-C , 37-H ) :   0.9584 B( 17-C , 38-H ) :   0.9715
B( 17-C , 39-H ) :   0.9583 B( 18-C , 19-C ) :   1.3285 B( 18-C , 23-C ) :   1.3819
B( 19-C , 20-C ) :   1.4037 B( 19-C , 40-H ) :   0.9646 B( 20-C , 21-C ) :   1.3306
B( 20-C , 41-H ) :   0.9789 B( 21-C , 22-C ) :   1.2881 B( 21-C , 24-O ) :   1.1543
B( 22-C , 23-C ) :   1.3511 B( 22-C , 42-H ) :   0.9807 B( 23-C , 43-H ) :   0.9689
B( 24-O , 25-C ) :   0.9765 B( 25-C , 44-H ) :   0.9584 B( 25-C , 45-H ) :   0.9582
B( 25-C , 46-H ) :   0.9715

Dispersion correction           -0.103653097
FINAL SINGLE POINT ENERGY     -1454.358076070750

DIPOLE MOMENT
-------------

Method             : SCF
Type of density    : Electron Density
Multiplicity       :   1
Irrep              :   0
Energy             : -1454.2544229736831767 Eh
Relativity type    :
Basis              : AO
                                X                 Y                 Z
Electronic contribution:     -0.075769763       0.286700302       2.302500015
Nuclear contribution   :      0.105465315      -0.365094269      -2.965310568
                        -----------------------------------------
Total Dipole Moment    :      0.029695552      -0.078393966      -0.662810553
                        -----------------------------------------
Magnitude (a.u.)       :      0.668090764
Magnitude (Debye)      :      1.698151768

Rotational constants in cm-1:             0.004984             0.004967             0.002862
Rotational constants in MHz :           149.429253           148.902328            85.809762

                             ****ORCA TERMINATED NORMALLY****
TOTAL RUN TIME: 0 days 0 hours 2 minutes 57 seconds 928 msec
