                         Program Version 6.0.0  -   RELEASE   -
|  1> ! RI BP86 def2-SVP D3BJ TIGHTSCF Opt
|  2> %pal
|  3> nprocs 6
|  4> end
|  5>
|  6> * xyz 0 1
|  7> C      4.126202   -0.857016   -0.367542
|  8> C      2.793394   -0.367339   -0.914098
|  9> C      1.626420   -1.148142   -0.310123
| 10> P     -0.005576   -0.618089   -1.003922
| 11> C     -1.126551   -1.670276    0.026631
| 12> C     -2.602830   -1.390797   -0.254012
| 13> C     -3.502469   -2.303884    0.565626
| 14> C     -0.228930    1.032516   -0.270599
| 15> C     -0.536256    2.101792   -1.125069
| 16> C     -0.719604    3.392669   -0.622461
| 17> C     -0.598013    3.632456    0.743312
| 18> C     -0.293381    2.582099    1.605104
| 19> C     -0.110128    1.290954    1.101295
| 20> H      4.949443   -0.288010   -0.810782
| 21> H      4.280932   -1.915394   -0.600370
| 22> H      4.173751   -0.732729    0.719039
| 23> H      2.797724   -0.471413   -2.006180
| 24> H      2.696260    0.702983   -0.696522
| 25> H      1.635600   -1.055302    0.781070
| 26> H      1.752287   -2.213657   -0.536301
| 27> H     -0.914331   -1.538927    1.092988
| 28> H     -0.908283   -2.718266   -0.210849
| 29> H     -2.823402   -1.537528   -1.318583
| 30> H     -2.850783   -0.349080   -0.017987
| 31> H     -3.337325   -2.157292    1.637822
| 32> H     -3.314390   -3.355937    0.328720
| 33> H     -4.554470   -2.090541    0.351772
| 34> H     -0.636521    1.939362   -2.196550
| 35> H     -0.957196    4.208294   -1.300136
| 36> H     -0.740405    4.635928    1.135124
| 37> H     -0.197700    2.765742    2.672024
| 38> H      0.126528    0.494824    1.801561
| 39> **                         ****END OF INPUT****
 Total Charge           Charge          ....    0
 Multiplicity           Mult            ....    1
 Number of Electrons    NEL             ....  106
Dispersion correction           -0.057823109
FINAL SINGLE POINT ENERGY      -809.710990984990
Dispersion correction             ... done (  0.1 sec)
Dispersion correction           -0.057605340
FINAL SINGLE POINT ENERGY      -809.716364396623
Dispersion correction             ... done (  0.1 sec)
Dispersion correction           -0.057819809
FINAL SINGLE POINT ENERGY      -809.717010002165
Dispersion correction             ... done (  0.1 sec)
FINAL SINGLE POINT ENERGY      -809.717161973554
Dispersion correction             ... done (  0.1 sec)
Dispersion correction           -0.057858715
FINAL SINGLE POINT ENERGY      -809.717187249052
Dispersion correction             ... done (  0.1 sec)
Dispersion correction           -0.057889228
FINAL SINGLE POINT ENERGY      -809.717191515074
Dispersion correction             ... done (  0.1 sec)
                    ***********************HURRAY********************

CARTESIAN COORDINATES (ANGSTROEM)
---------------------------------
  C      4.165887   -0.744268   -0.320614
  C      2.804558   -0.322629   -0.882866
  C      1.647023   -1.185412   -0.364408
  P     -0.004130   -0.704867   -1.118841
  C     -1.139747   -1.725668   -0.025587
  C     -2.618080   -1.356009   -0.202802
  C     -3.557004   -2.212634    0.652613
  C     -0.231052    0.970023   -0.339024
  C     -0.503933    2.064836   -1.185070
  C     -0.681695    3.355710   -0.657872
  C     -0.589473    3.567071    0.726895
  C     -0.318660    2.483527    1.581923
  C     -0.140913    1.196861    1.051752
  H      4.983367   -0.102070   -0.707699
  H      4.407598   -1.794102   -0.590050
  H      4.182554   -0.675510    0.787575
  H      2.823420   -0.365479   -1.994278
  H      2.606018    0.741000   -0.625997
  H      1.593781   -1.140363    0.746836
  H      1.812223   -2.253803   -0.628809
  H     -0.839694   -1.630707    1.042451
  H     -0.970336   -2.789301   -0.305507
  H     -2.892419   -1.448021   -1.276840
  H     -2.754951   -0.282346    0.052342
  H     -3.324207   -2.107322    1.733273
  H     -3.467095   -3.289972    0.398804
  H     -4.617887   -1.921874    0.509376
  H     -0.576860    1.895077   -2.271334
  H     -0.893773    4.199654   -1.332508
  H     -0.728703    4.576780    1.142995
  H     -0.245607    2.644008    2.668986
  H      0.069787    0.357809    1.734286

 Multiplicity           Mult            ....    1
 Number of Electrons    NEL             ....  106
 Basis Dimension        Dim             ....  281

ORBITAL ENERGIES
----------------

  NO   OCC          E(Eh)            E(eV)
   0   2.0000     -76.330536     -2077.0595
   1   2.0000      -9.923958      -270.0446
   2   2.0000      -9.923691      -270.0374
   3   2.0000      -9.923395      -270.0293
   4   2.0000      -9.922124      -269.9947
   5   2.0000      -9.921516      -269.9782
   6   2.0000      -9.921344      -269.9735
   7   2.0000      -9.914158      -269.7780
   8   2.0000      -9.913998      -269.7736
   9   2.0000      -9.912638      -269.7366
  10   2.0000      -9.912544      -269.7340
  11   2.0000      -9.906162      -269.5604
  12   2.0000      -9.906049      -269.5573
  13   2.0000      -6.299928      -171.4298
  14   2.0000      -4.521571      -123.0382
  15   2.0000      -4.521131      -123.0262
  16   2.0000      -4.517643      -122.9313
  17   2.0000      -0.772272       -21.0146
  18   2.0000      -0.715712       -19.4755
  19   2.0000      -0.701668       -19.0933
  20   2.0000      -0.674039       -18.3415
  21   2.0000      -0.670009       -18.2319
  22   2.0000      -0.631641       -17.1878
  23   2.0000      -0.601727       -16.3738
  24   2.0000      -0.548998       -14.9390
  25   2.0000      -0.541739       -14.7415
  26   2.0000      -0.529181       -14.3998
  27   2.0000      -0.511923       -13.9301
  28   2.0000      -0.488243       -13.2858
  29   2.0000      -0.452670       -12.3178
  30   2.0000      -0.416726       -11.3397
  31   2.0000      -0.408923       -11.1274
  32   2.0000      -0.403550       -10.9812
  33   2.0000      -0.398967       -10.8564
  34   2.0000      -0.379622       -10.3301
  35   2.0000      -0.377717       -10.2782
  36   2.0000      -0.374840       -10.1999
  37   2.0000      -0.360093        -9.7986
  38   2.0000      -0.357754        -9.7350
  39   2.0000      -0.340023        -9.2525
  40   2.0000      -0.338461        -9.2100
  41   2.0000      -0.329056        -8.9541
  42   2.0000      -0.328457        -8.9378
  43   2.0000      -0.305817        -8.3217
  44   2.0000      -0.305321        -8.3082
  45   2.0000      -0.296403        -8.0655
  46   2.0000      -0.289339        -7.8733
  47   2.0000      -0.284141        -7.7319
  48   2.0000      -0.273716        -7.4482
  49   2.0000      -0.269455        -7.3322
  50   2.0000      -0.233725        -6.3600
  51   2.0000      -0.229061        -6.2331
  52   2.0000      -0.197762        -5.3814
  53   0.0000      -0.055536        -1.5112
  54   0.0000      -0.045365        -1.2345
  55   0.0000       0.025798         0.7020
  56   0.0000       0.027149         0.7387
  57   0.0000       0.031696         0.8625

MULLIKEN ATOMIC CHARGES
-----------------------
   0 C :   -0.049977
   1 C :   -0.034986
   2 C :   -0.169725
   3 P :    0.171034
   4 C :   -0.172178
   5 C :   -0.034863
   6 C :   -0.049852
   7 C :   -0.137818
   8 C :    0.010752
   9 C :   -0.000296
  10 C :    0.001530
  11 C :    0.002926
  12 C :   -0.001511
  13 H :    0.031944
  14 H :    0.026757
  15 H :    0.026370
  16 H :    0.029208
  17 H :    0.039001
  18 H :    0.029992
  19 H :    0.046013
  20 H :    0.029755
  21 H :    0.046337
  22 H :    0.029467
  23 H :    0.039207
  24 H :    0.026128
  25 H :    0.026837
  26 H :    0.032004
  27 H :   -0.000750
  28 H :    0.004657
  29 H :    0.005250
  30 H :    0.001130
  31 H :   -0.004345
Sum of atomic charges:   -0.0000000

LOEWDIN ATOMIC CHARGES
----------------------
   0 C :   -0.073997
   1 C :   -0.061682
   2 C :   -0.182931
   3 P :    0.454104
   4 C :   -0.183611
   5 C :   -0.061587
   6 C :   -0.073946
   7 C :   -0.173776
   8 C :   -0.034940
   9 C :   -0.031550
  10 C :   -0.028116
  11 C :   -0.031723
  12 C :   -0.034223
  13 H :    0.029657
  14 H :    0.026125
  15 H :    0.026400
  16 H :    0.026894
  17 H :    0.029095
  18 H :    0.016943
  19 H :    0.027083
  20 H :    0.016519
  21 H :    0.027379
  22 H :    0.027174
  23 H :    0.029002
  24 H :    0.026311
  25 H :    0.026131
  26 H :    0.029687
  27 H :    0.029276
  28 H :    0.033231
  29 H :    0.032893
  30 H :    0.032260
  31 H :    0.025918

  Mayer bond orders larger than 0.100000
B(  0-C ,  1-C ) :   1.1144 B(  0-C , 13-H ) :   0.9631 B(  0-C , 14-H ) :   0.9679
B(  0-C , 15-H ) :   0.9666 B(  1-C ,  2-C ) :   1.0624 B(  1-C , 16-H ) :   0.9373
B(  1-C , 17-H ) :   0.9391 B(  2-C ,  3-P ) :   0.9666 B(  2-C , 18-H ) :   0.9212
B(  2-C , 19-H ) :   0.9362 B(  3-P ,  4-C ) :   0.9665 B(  3-P ,  7-C ) :   0.9203
B(  4-C ,  5-C ) :   1.0628 B(  4-C , 20-H ) :   0.9207 B(  4-C , 21-H ) :   0.9359
B(  5-C ,  6-C ) :   1.1145 B(  5-C , 22-H ) :   0.9373 B(  5-C , 23-H ) :   0.9386
B(  6-C , 24-H ) :   0.9665 B(  6-C , 25-H ) :   0.9680 B(  6-C , 26-H ) :   0.9631
B(  7-C ,  8-C ) :   1.3907 B(  7-C , 12-C ) :   1.3481 B(  8-C ,  9-C ) :   1.3787
B(  8-C , 27-H ) :   0.9742 B(  9-C , 10-C ) :   1.3901 B(  9-C , 28-H ) :   0.9768
B( 10-C , 11-C ) :   1.3705 B( 10-C , 29-H ) :   0.9755 B( 11-C , 12-C ) :   1.4112
B( 11-C , 30-H ) :   0.9741 B( 12-C , 31-H ) :   0.9669

Dispersion correction           -0.057878182
FINAL SINGLE POINT ENERGY      -809.717192881299

DIPOLE MOMENT
-------------

Method             : SCF
Type of density    : Electron Density
Multiplicity       :   1
Irrep              :   0
Energy             :  -809.6593146991162939 Eh
Relativity type    :
Basis              : AO
                                X                 Y                 Z
Electronic contribution:     -2.185663389       8.508976240      -4.455952300
Nuclear contribution   :      2.224980939      -8.424601913       4.905350757
                        -----------------------------------------
Total Dipole Moment    :      0.039317550       0.084374327       0.449398457
                        -----------------------------------------
Magnitude (a.u.)       :      0.458937762
Magnitude (Debye)      :      1.166527086

Rotational constants in cm-1:             0.020574             0.018790             0.011636
Rotational constants in MHz :           616.798040           563.307803           348.852908

                             ****ORCA TERMINATED NORMALLY****
TOTAL RUN TIME: 0 days 0 hours 1 minutes 12 seconds 643 msec
