                         Program Version 6.0.0  -   RELEASE   -
|  1> ! RIJCOSX M062X def2-TZVP D3ZERO NormalSCF
|  2> %pal
|  3> nprocs 6
|  4> end
|  5>
|  6> * xyz 0 1
|  7>   C          -2.13174245723783     -1.68372596560686      0.65326495840281
|  8>   C          -0.76531099382268     -1.45125722240460      0.00951949394264
|  9>   P           0.10490139372941      0.06154760153137      0.69013968943427
| 10>   C          -0.88473911271514      1.38922860663746     -0.18613024572664
| 11>   C          -0.36101975806075      2.79735339373972      0.09281137414839
| 12>   C          -1.31276431771691      3.87972639772727     -0.38403845627295
| 13>   O          -2.47091991201663      3.71095919007975     -0.71728271306288
| 14>   O          -0.71901456941875      5.10242859148616     -0.37827262809296
| 15>   C           1.62181023919641      0.05035737215075     -0.40973349416136
| 16>   C           2.62630891795676     -1.03292753687114     -0.01901612171714
| 17>   C           3.96769754037420     -0.86217327649318     -0.70925748139744
| 18>   O           4.33900416531247      0.13218287457707     -1.30445892950477
| 19>   O           4.74436360328599     -1.96869634093119     -0.56815337917338
| 20>   C          -2.70540010995087     -3.05178605758858      0.33032285742244
| 21>   O          -2.09018714042830     -3.98430665234680     -0.15218850184589
| 22>   O          -4.01868168594636     -3.13348635026853      0.67088112999549
| 23>   H          -2.87702132570333     -0.91490401948384      0.36176221163823
| 24>   H          -2.06287100703195     -1.61576656944657      1.76296928120825
| 25>   H          -0.12236759392153     -2.33241822028523      0.21453852142593
| 26>   H          -0.85934875015329     -1.38344399189585     -1.09646955416047
| 27>   H          -0.91702291836587      1.19280880743087     -1.28012931409993
| 28>   H          -1.93273206488745      1.32167599771237      0.17322549880460
| 29>   H           0.63324941843052      2.98094946314407     -0.36494414937306
| 30>   H          -0.21098967956779      2.95504915489630      1.18514576351519
| 31>   H          -1.41241118124335      5.73407780967824     -0.67185938212729
| 32>   H           1.32846305636326     -0.05414253751101     -1.47726871527735
| 33>   H           2.11383198503511      1.04095600523284     -0.31728025543085
| 34>   H           2.25293992826277     -2.05632665065919     -0.23054563247840
| 35>   H           2.82138140346151     -1.01561437191675      1.07750475099862
| 36>   H           5.59179942285785     -1.75559701334542     -1.01805417283264
| 37>   H          -4.29120849607745     -4.05272948896949      0.45478759579853
| 38> **                         ****END OF INPUT****

CARTESIAN COORDINATES (ANGSTROEM)
---------------------------------
  C     -2.131742   -1.683726    0.653265
  C     -0.765311   -1.451257    0.009519
  P      0.104901    0.061548    0.690140
  C     -0.884739    1.389229   -0.186130
  C     -0.361020    2.797353    0.092811
  C     -1.312764    3.879726   -0.384038
  O     -2.470920    3.710959   -0.717283
  O     -0.719015    5.102429   -0.378273
  C      1.621810    0.050357   -0.409733
  C      2.626309   -1.032928   -0.019016
  C      3.967698   -0.862173   -0.709257
  O      4.339004    0.132183   -1.304459
  O      4.744364   -1.968696   -0.568153
  C     -2.705400   -3.051786    0.330323
  O     -2.090187   -3.984307   -0.152189
  O     -4.018682   -3.133486    0.670881
  H     -2.877021   -0.914904    0.361762
  H     -2.062871   -1.615767    1.762969
  H     -0.122368   -2.332418    0.214539
  H     -0.859349   -1.383444   -1.096470
  H     -0.917023    1.192809   -1.280129
  H     -1.932732    1.321676    0.173225
  H      0.633249    2.980949   -0.364944
  H     -0.210990    2.955049    1.185146
  H     -1.412411    5.734078   -0.671859
  H      1.328463   -0.054143   -1.477269
  H      2.113832    1.040956   -0.317280
  H      2.252940   -2.056327   -0.230546
  H      2.821381   -1.015614    1.077505
  H      5.591799   -1.755597   -1.018054
  H     -4.291208   -4.052729    0.454788

 Total Charge           Charge          ....    0
 Multiplicity           Mult            ....    1
 Number of Electrons    NEL             ....  132
 Basis Dimension        Dim             ....  592

ORBITAL ENERGIES
----------------

  NO   OCC          E(Eh)            E(eV)
   0   2.0000     -78.033947     -2123.4116
   1   2.0000     -19.683549      -535.6166
   2   2.0000     -19.683534      -535.6162
   3   2.0000     -19.683525      -535.6160
   4   2.0000     -19.629898      -534.1567
   5   2.0000     -19.629880      -534.1562
   6   2.0000     -19.629872      -534.1560
   7   2.0000     -10.689584      -290.8784
   8   2.0000     -10.689567      -290.8779
   9   2.0000     -10.689562      -290.8778
  10   2.0000     -10.571715      -287.6710
  11   2.0000     -10.571714      -287.6710
  12   2.0000     -10.571675      -287.6699
  13   2.0000     -10.556491      -287.2567
  14   2.0000     -10.556482      -287.2565
  15   2.0000     -10.556455      -287.2557
  16   2.0000      -6.849990      -186.3977
  17   2.0000      -4.964469      -135.0901
  18   2.0000      -4.964140      -135.0811
  19   2.0000      -4.964135      -135.0810
  20   2.0000      -1.239476       -33.7278
  21   2.0000      -1.239470       -33.7277
  22   2.0000      -1.239443       -33.7270
  23   2.0000      -1.145439       -31.1690
  24   2.0000      -1.145434       -31.1688
  25   2.0000      -1.145409       -31.1682
  26   2.0000      -0.916159       -24.9300
  27   2.0000      -0.894440       -24.3389
  28   2.0000      -0.894404       -24.3380
  29   2.0000      -0.810682       -22.0598
  30   2.0000      -0.763512       -20.7762
  31   2.0000      -0.763463       -20.7749
  32   2.0000      -0.688872       -18.7452
  33   2.0000      -0.672614       -18.3028
  34   2.0000      -0.672511       -18.3000
  35   2.0000      -0.622238       -16.9320
  36   2.0000      -0.590907       -16.0794
  37   2.0000      -0.590865       -16.0782
  38   2.0000      -0.588027       -16.0010
  39   2.0000      -0.582259       -15.8441
  40   2.0000      -0.582196       -15.8424
  41   2.0000      -0.569384       -15.4937
  42   2.0000      -0.567556       -15.4440
  43   2.0000      -0.567476       -15.4418
  44   2.0000      -0.556623       -15.1465
  45   2.0000      -0.518904       -14.1201
  46   2.0000      -0.508223       -13.8295
  47   2.0000      -0.508134       -13.8270
  48   2.0000      -0.494106       -13.4453
  49   2.0000      -0.494056       -13.4439
  50   2.0000      -0.481048       -13.0900
  51   2.0000      -0.460344       -12.5266
  52   2.0000      -0.460293       -12.5252
  53   2.0000      -0.455554       -12.3962
  54   2.0000      -0.440571       -11.9886
  55   2.0000      -0.425674       -11.5832
  56   2.0000      -0.425485       -11.5780
  57   2.0000      -0.407267       -11.0823
  58   2.0000      -0.407262       -11.0822
  59   2.0000      -0.407232       -11.0813
  60   2.0000      -0.384285       -10.4569
  61   2.0000      -0.384170       -10.4538
  62   2.0000      -0.368568       -10.0292
  63   2.0000      -0.364597        -9.9212
  64   2.0000      -0.364569        -9.9204
  65   2.0000      -0.294589        -8.0162
  66   0.0000       0.029298         0.7972
  67   0.0000       0.029473         0.8020
  68   0.0000       0.038193         1.0393
  69   0.0000       0.050579         1.3763
  70   0.0000       0.050744         1.3808

MULLIKEN ATOMIC CHARGES
-----------------------
   0 C :   -0.345696
   1 C :   -0.415372
   2 P :    0.238531
   3 C :   -0.413835
   4 C :   -0.344304
   5 C :    0.366669
   6 O :   -0.339957
   7 O :   -0.409681
   8 C :   -0.413303
   9 C :   -0.344436
  10 C :    0.366035
  11 O :   -0.340085
  12 O :   -0.409599
  13 C :    0.367091
  14 O :   -0.340241
  15 O :   -0.409751
  16 H :    0.180352
  17 H :    0.180886
  18 H :    0.184748
  19 H :    0.176048
  20 H :    0.176052
  21 H :    0.184044
  22 H :    0.180036
  23 H :    0.180676
  24 H :    0.341083
  25 H :    0.175931
  26 H :    0.184356
  27 H :    0.180283
  28 H :    0.180892
  29 H :    0.341209
  30 H :    0.341339
Sum of atomic charges:   -0.0000000

LOEWDIN ATOMIC CHARGES
----------------------
   0 C :   -0.265174
   1 C :   -0.406382
   2 P :    0.553972
   3 C :   -0.406310
   4 C :   -0.265051
   5 C :   -0.478058
   6 O :    0.080854
   7 O :    0.072735
   8 C :   -0.406309
   9 C :   -0.265006
  10 C :   -0.478099
  11 O :    0.080800
  12 O :    0.072814
  13 C :   -0.478112
  14 O :    0.080715
  15 O :    0.072837
  16 H :    0.157425
  17 H :    0.163435
  18 H :    0.145784
  19 H :    0.136571
  20 H :    0.136631
  21 H :    0.145617
  22 H :    0.157535
  23 H :    0.163382
  24 H :    0.208030
  25 H :    0.136561
  26 H :    0.145734
  27 H :    0.157539
  28 H :    0.163404
  29 H :    0.208063
  30 H :    0.208063

  Mayer bond orders larger than 0.100000
B(  0-C ,  1-C ) :   0.9181 B(  0-C , 13-C ) :   0.9768 B(  0-C , 16-H ) :   0.9614
B(  0-C , 17-H ) :   0.9367 B(  1-C ,  2-P ) :   0.9630 B(  1-C , 18-H ) :   0.9438
B(  1-C , 19-H ) :   0.9554 B(  2-P ,  3-C ) :   0.9625 B(  2-P ,  8-C ) :   0.9639
B(  3-C ,  4-C ) :   0.9178 B(  3-C , 20-H ) :   0.9557 B(  3-C , 21-H ) :   0.9441
B(  4-C ,  5-C ) :   0.9778 B(  4-C , 22-H ) :   0.9615 B(  4-C , 23-H ) :   0.9369
B(  5-C ,  6-O ) :   2.0413 B(  5-C ,  7-O ) :   1.2009 B(  7-O , 24-H ) :   0.8563
B(  8-C ,  9-C ) :   0.9166 B(  8-C , 25-H ) :   0.9556 B(  8-C , 26-H ) :   0.9439
B(  9-C , 10-C ) :   0.9780 B(  9-C , 27-H ) :   0.9613 B(  9-C , 28-H ) :   0.9366
B( 10-C , 11-O ) :   2.0414 B( 10-C , 12-O ) :   1.2010 B( 12-O , 29-H ) :   0.8562
B( 13-C , 14-O ) :   2.0411 B( 13-C , 15-O ) :   1.2009 B( 15-O , 30-H ) :   0.8561

Dispersion correction           -0.001519271
FINAL SINGLE POINT ENERGY     -1144.749185563119

DIPOLE MOMENT
-------------

Method             : SCF
Type of density    : Electron Density
Multiplicity       :   1
Irrep              :   0
Energy             : -1144.7476662921892512 Eh
Relativity type    :
Basis              : AO
                                X                 Y                 Z
Electronic contribution:      0.105329013       0.043625419       0.687244532
Nuclear contribution   :     -0.072098274      -0.021339540      -0.397073946
                        -----------------------------------------
Total Dipole Moment    :      0.033230739       0.022285879       0.290170586
                        -----------------------------------------
Magnitude (a.u.)       :      0.292916219
Magnitude (Debye)      :      0.744533860

Rotational constants in cm-1:             0.009615             0.009593             0.004959
Rotational constants in MHz :           288.249287           287.577740           148.659069

                             ****ORCA TERMINATED NORMALLY****
TOTAL RUN TIME: 0 days 0 hours 1 minutes 10 seconds 564 msec
