                         Program Version 6.0.0  -   RELEASE   -
|  1> ! RIJCOSX M062X def2-TZVP D3ZERO NormalSCF
|  2> %pal
|  3> nprocs 6
|  4> end
|  5>
|  6> * xyz 0 1
|  7>   C          -1.30177737909722      3.62053421195360     -0.58324364829551
|  8>   C          -1.37221793540226      3.10257314756922      0.69183220009230
|  9>   O          -0.87752743652798      1.83233493468242      0.72186670597696
| 10>   C          -0.48081466723545      1.52541393875688     -0.55677772514376
| 11>   C          -0.72054738846442      2.59307308204507     -1.39960762715719
| 12>   P           0.23997478883023     -0.08329496118399     -0.96175433035497
| 13>   O           0.60106489925951     -0.20868654809967     -2.42374872782733
| 14>   C          -0.96865499496837     -1.32081782177473     -0.43313491489213
| 15>   C          -1.56149349431298     -2.31559904472799     -1.18590727253230
| 16>   C          -2.43851911398364     -3.01917350968753     -0.29382523520501
| 17>   C          -2.31379884104962     -2.40179808326986      0.93189051755324
| 18>   O          -1.42544911681838     -1.36986155316439      0.86128921432185
| 19>   C           1.66926084256816     -0.28089388915688      0.12902482554539
| 20>   C           2.98473454821700     -0.52068870072148     -0.21710030367651
| 21>   C           3.71339517015198     -0.59172049277039      1.01741033407834
| 22>   C           2.78931717406519     -0.39019305611287      2.01968175356705
| 23>   O           1.54545598259753     -0.20040362244203      1.49460491369241
| 24>   H          -1.62688332543441      4.61765980961843     -0.90048026869022
| 25>   H          -1.73312792386575      3.49534934944472      1.64803635303047
| 26>   H          -0.49852968605442      2.61518599043985     -2.47175126382328
| 27>   H          -1.37553827472383     -2.50072746790616     -2.24912650555847
| 28>   H          -3.08065450868135     -3.87497806742425     -0.53014758695968
| 29>   H          -2.77029340752422     -2.57038720825592      1.91273192680186
| 30>   H           3.36053375133398     -0.62932638694510     -1.23997358803509
| 31>   H           4.78680343900769     -0.76959494743737      1.14680116917686
| 32>   H           2.85528589811305     -0.35397610342958      3.11201808431473
| 33> **                         ****END OF INPUT****

CARTESIAN COORDINATES (ANGSTROEM)
---------------------------------
  C     -1.301777    3.620534   -0.583244
  C     -1.372218    3.102573    0.691832
  O     -0.877527    1.832335    0.721867
  C     -0.480815    1.525414   -0.556778
  C     -0.720547    2.593073   -1.399608
  P      0.239975   -0.083295   -0.961754
  O      0.601065   -0.208687   -2.423749
  C     -0.968655   -1.320818   -0.433135
  C     -1.561493   -2.315599   -1.185907
  C     -2.438519   -3.019174   -0.293825
  C     -2.313799   -2.401798    0.931891
  O     -1.425449   -1.369862    0.861289
  C      1.669261   -0.280894    0.129025
  C      2.984735   -0.520689   -0.217100
  C      3.713395   -0.591720    1.017410
  C      2.789317   -0.390193    2.019682
  O      1.545456   -0.200404    1.494605
  H     -1.626883    4.617660   -0.900480
  H     -1.733128    3.495349    1.648036
  H     -0.498530    2.615186   -2.471751
  H     -1.375538   -2.500727   -2.249127
  H     -3.080655   -3.874978   -0.530148
  H     -2.770293   -2.570387    1.912732
  H      3.360534   -0.629326   -1.239974
  H      4.786803   -0.769595    1.146801
  H      2.855286   -0.353976    3.112018

 Total Charge           Charge          ....    0
 Multiplicity           Mult            ....    1
 Number of Electrons    NEL             ....  128
 Basis Dimension        Dim             ....  587

ORBITAL ENERGIES
----------------

  NO   OCC          E(Eh)            E(eV)
   0   2.0000     -78.120555     -2125.7684
   1   2.0000     -19.707510      -536.2686
   2   2.0000     -19.707493      -536.2681
   3   2.0000     -19.707480      -536.2678
   4   2.0000     -19.577357      -532.7270
   5   2.0000     -10.609899      -288.7100
   6   2.0000     -10.609869      -288.7092
   7   2.0000     -10.609860      -288.7090
   8   2.0000     -10.601463      -288.4805
   9   2.0000     -10.601459      -288.4804
  10   2.0000     -10.601447      -288.4800
  11   2.0000     -10.559366      -287.3350
  12   2.0000     -10.559365      -287.3349
  13   2.0000     -10.559349      -287.3345
  14   2.0000     -10.555147      -287.2202
  15   2.0000     -10.555144      -287.2201
  16   2.0000     -10.555100      -287.2189
  17   2.0000      -6.924958      -188.4377
  18   2.0000      -5.042376      -137.2100
  19   2.0000      -5.042370      -137.2099
  20   2.0000      -5.040687      -137.1641
  21   2.0000      -1.244807       -33.8729
  22   2.0000      -1.241833       -33.7920
  23   2.0000      -1.241808       -33.7913
  24   2.0000      -1.075384       -29.2627
  25   2.0000      -0.908368       -24.7179
  26   2.0000      -0.907442       -24.6928
  27   2.0000      -0.907436       -24.6926
  28   2.0000      -0.875409       -23.8211
  29   2.0000      -0.844790       -22.9879
  30   2.0000      -0.844779       -22.9876
  31   2.0000      -0.734864       -19.9967
  32   2.0000      -0.689297       -18.7567
  33   2.0000      -0.686239       -18.6735
  34   2.0000      -0.686230       -18.6733
  35   2.0000      -0.653035       -17.7700
  36   2.0000      -0.653027       -17.7698
  37   2.0000      -0.640562       -17.4306
  38   2.0000      -0.622852       -16.9487
  39   2.0000      -0.622826       -16.9480
  40   2.0000      -0.569608       -15.4998
  41   2.0000      -0.550416       -14.9776
  42   2.0000      -0.550407       -14.9773
  43   2.0000      -0.537265       -14.6197
  44   2.0000      -0.517702       -14.0874
  45   2.0000      -0.517686       -14.0869
  46   2.0000      -0.491421       -13.3723
  47   2.0000      -0.478557       -13.0222
  48   2.0000      -0.477391       -12.9905
  49   2.0000      -0.477385       -12.9903
  50   2.0000      -0.470243       -12.7960
  51   2.0000      -0.470215       -12.7952
  52   2.0000      -0.462234       -12.5780
  53   2.0000      -0.449904       -12.2425
  54   2.0000      -0.441456       -12.0126
  55   2.0000      -0.441396       -12.0110
  56   2.0000      -0.357635        -9.7318
  57   2.0000      -0.357632        -9.7317
  58   2.0000      -0.352632        -9.5956
  59   2.0000      -0.352604        -9.5949
  60   2.0000      -0.351061        -9.5528
  61   2.0000      -0.304197        -8.2776
  62   2.0000      -0.304159        -8.2766
  63   2.0000      -0.282799        -7.6953
  64   0.0000      -0.000902        -0.0245
  65   0.0000      -0.000884        -0.0240
  66   0.0000       0.042453         1.1552
  67   0.0000       0.045281         1.2322
  68   0.0000       0.076296         2.0761

MULLIKEN ATOMIC CHARGES
-----------------------
   0 C :   -0.196962
   1 C :    0.002965
   2 O :   -0.217318
   3 C :    0.043045
   4 C :   -0.174378
   5 P :    0.702366
   6 O :   -0.585779
   7 C :    0.040795
   8 C :   -0.172097
   9 C :   -0.198017
  10 C :    0.003316
  11 O :   -0.217105
  12 C :    0.042278
  13 C :   -0.173353
  14 C :   -0.197191
  15 C :    0.002730
  16 O :   -0.216938
  17 H :    0.154301
  18 H :    0.167379
  19 H :    0.181911
  20 H :    0.182476
  21 H :    0.154548
  22 H :    0.167287
  23 H :    0.181785
  24 H :    0.154406
  25 H :    0.167550
Sum of atomic charges:   -0.0000000

LOEWDIN ATOMIC CHARGES
----------------------
   0 C :   -0.184422
   1 C :   -0.216554
   2 O :    0.331203
   3 C :   -0.339924
   4 C :   -0.145094
   5 P :    0.623016
   6 O :   -0.283126
   7 C :   -0.339952
   8 C :   -0.145052
   9 C :   -0.184452
  10 C :   -0.216589
  11 O :    0.331237
  12 C :   -0.339937
  13 C :   -0.145034
  14 C :   -0.184403
  15 C :   -0.216679
  16 O :    0.331268
  17 H :    0.146943
  18 H :    0.137979
  19 H :    0.156562
  20 H :    0.156601
  21 H :    0.146977
  22 H :    0.137977
  23 H :    0.156561
  24 H :    0.146951
  25 H :    0.137941

  Mayer bond orders larger than 0.100000
B(  0-C ,  1-C ) :   1.6742 B(  0-C ,  4-C ) :   1.2702 B(  0-C , 17-H ) :   0.9495
B(  1-C ,  2-O ) :   1.1216 B(  1-C ,  3-C ) :   0.1021 B(  1-C , 18-H ) :   0.9502
B(  2-O ,  3-C ) :   1.0350 B(  3-C ,  4-C ) :   1.6099 B(  3-C ,  5-P ) :   0.9326
B(  4-C , 19-H ) :   0.9231 B(  5-P ,  6-O ) :   2.0032 B(  5-P ,  7-C ) :   0.9322
B(  5-P , 12-C ) :   0.9326 B(  7-C ,  8-C ) :   1.6115 B(  7-C , 10-C ) :   0.1021
B(  7-C , 11-O ) :   1.0352 B(  8-C ,  9-C ) :   1.2708 B(  8-C , 20-H ) :   0.9221
B(  9-C , 10-C ) :   1.6738 B(  9-C , 21-H ) :   0.9493 B( 10-C , 11-O ) :   1.1214
B( 10-C , 22-H ) :   0.9502 B( 12-C , 13-C ) :   1.6106 B( 12-C , 15-C ) :   0.1023
B( 12-C , 16-O ) :   1.0353 B( 13-C , 14-C ) :   1.2701 B( 13-C , 23-H ) :   0.9234
B( 14-C , 15-C ) :   1.6746 B( 14-C , 24-H ) :   0.9494 B( 15-C , 16-O ) :   1.1215
B( 15-C , 25-H ) :   0.9498

Dispersion correction           -0.001360094
FINAL SINGLE POINT ENERGY     -1104.883001268541

DIPOLE MOMENT
-------------

Method             : SCF
Type of density    : Electron Density
Multiplicity       :   1
Irrep              :   0
Energy             : -1104.8816411746627182 Eh
Relativity type    :
Basis              : AO
                                X                 Y                 Z
Electronic contribution:      0.130684378      -0.046493101      -0.543343143
Nuclear contribution   :     -0.442235313       0.154366183       1.805670799
                        -----------------------------------------
Total Dipole Moment    :     -0.311550935       0.107873082       1.262327656
                        -----------------------------------------
Magnitude (a.u.)       :      1.304673023
Magnitude (Debye)      :      3.316215281

Rotational constants in cm-1:             0.015038             0.015033             0.010342
Rotational constants in MHz :           450.821835           450.688508           310.049212

                             ****ORCA TERMINATED NORMALLY****
TOTAL RUN TIME: 0 days 0 hours 1 minutes 13 seconds 689 msec
