                         Program Version 6.0.0  -   RELEASE   -
|  1> ! RIJCOSX M062X def2-TZVP D3ZERO NormalSCF
|  2> %pal
|  3> nprocs 6
|  4> end
|  5>
|  6> * xyz 0 1
|  7>   C          -3.74507034376437     -2.19398881939447     -0.27731921411982
|  8>   C          -3.31495081251910     -2.21339481722244      1.06027071328787
|  9>   C          -2.15998836086169     -1.51007947382184      1.43718873859771
| 10>   C          -1.43139956913986     -0.79101218344073      0.46871911784048
| 11>   C          -1.86487389639886     -0.76370369232948     -0.87294527991656
| 12>   C          -3.02299106243425     -1.46619752033604     -1.24004775536144
| 13>   P           0.07308312598612      0.05656404941163      1.07586601239382
| 14>   O           0.17529783899954      0.05759690935988      2.59396758249829
| 15>   C           1.50175751307863     -0.75748686080247      0.27081424966553
| 16>   C           1.75819581602816     -0.71141193102593     -1.11504401540395
| 17>   C           2.87082027576008     -1.39033076549349     -1.63550161212203
| 18>   C           3.72289349158822     -2.11298728934814     -0.78136092156210
| 19>   C           3.46944077057906     -2.15040693994578      0.60032254827648
| 20>   C           2.36129747503004     -1.47074013222294      1.13008927930264
| 21>   C           0.00610774756669      1.76415175720421      0.37818980216345
| 22>   C           0.05878700022239      2.83513238663499      1.28819655967871
| 23>   C           0.00633810096335      4.13945077806880      0.77364117836987
| 24>   C          -0.09551009374599      4.31276157725334     -0.61569745523259
| 25>   C          -0.14038268543083      3.17175557734489     -1.43705659309835
| 26>   N          -0.09100751560056      1.91829073541379     -0.95694158827124
| 27>   H          -4.65129730079019     -2.74555167294414     -0.57192314684869
| 28>   H          -3.88411288223141     -2.77725452757678      1.81541811917251
| 29>   H          -1.80393817818998     -1.49754743256975      2.47913036247130
| 30>   H          -1.30949813135014     -0.17142124463174     -1.61451124972762
| 31>   H          -3.36699837688890     -1.44392597290466     -2.28565341942207
| 32>   H           1.10281905514695     -0.12252967302913     -1.77307460046085
| 33>   H           3.07684810226322     -1.35317854832852     -2.71638636543894
| 34>   H           4.59254586490696     -2.64606445951596     -1.19584383848511
| 35>   H           4.14075360186027     -2.70985447246446      1.27001245395620
| 36>   H           2.14270193170332     -1.47252085162583      2.20933620853025
| 37>   H           0.13789816513764      2.61451685052526      2.36346949106320
| 38>   H           0.04414011616210      5.00994234662940      1.44681754069706
| 39>   H          -0.13978722788440      5.31709052783579     -1.06292258742206
| 40>   H          -0.21991955575221      3.27433678529274     -2.53357331507192
| 41> **                         ****END OF INPUT****

CARTESIAN COORDINATES (ANGSTROEM)
---------------------------------
  C     -3.745070   -2.193989   -0.277319
  C     -3.314951   -2.213395    1.060271
  C     -2.159988   -1.510079    1.437189
  C     -1.431400   -0.791012    0.468719
  C     -1.864874   -0.763704   -0.872945
  C     -3.022991   -1.466198   -1.240048
  P      0.073083    0.056564    1.075866
  O      0.175298    0.057597    2.593968
  C      1.501758   -0.757487    0.270814
  C      1.758196   -0.711412   -1.115044
  C      2.870820   -1.390331   -1.635502
  C      3.722893   -2.112987   -0.781361
  C      3.469441   -2.150407    0.600323
  C      2.361297   -1.470740    1.130089
  C      0.006108    1.764152    0.378190
  C      0.058787    2.835132    1.288197
  C      0.006338    4.139451    0.773641
  C     -0.095510    4.312762   -0.615697
  C     -0.140383    3.171756   -1.437057
  N     -0.091008    1.918291   -0.956942
  H     -4.651297   -2.745552   -0.571923
  H     -3.884113   -2.777255    1.815418
  H     -1.803938   -1.497547    2.479130
  H     -1.309498   -0.171421   -1.614511
  H     -3.366998   -1.443926   -2.285653
  H      1.102819   -0.122530   -1.773075
  H      3.076848   -1.353179   -2.716386
  H      4.592546   -2.646064   -1.195844
  H      4.140754   -2.709854    1.270012
  H      2.142702   -1.472521    2.209336
  H      0.137898    2.614517    2.363469
  H      0.044140    5.009942    1.446818
  H     -0.139787    5.317091   -1.062923
  H     -0.219920    3.274337   -2.533573

 Total Charge           Charge          ....    0
 Multiplicity           Mult            ....    1
 Number of Electrons    NEL             ....  146
 Basis Dimension        Dim             ....  710

ORBITAL ENERGIES
----------------

  NO   OCC          E(Eh)            E(eV)
   0   2.0000     -78.098039     -2125.1557
   1   2.0000     -19.569545      -532.5144
   2   2.0000     -14.772112      -401.9696
   3   2.0000     -10.597778      -288.3802
   4   2.0000     -10.595642      -288.3221
   5   2.0000     -10.579343      -287.8785
   6   2.0000     -10.571985      -287.6783
   7   2.0000     -10.567668      -287.5609
   8   2.0000     -10.556518      -287.2575
   9   2.0000     -10.556374      -287.2535
  10   2.0000     -10.555547      -287.2310
  11   2.0000     -10.555417      -287.2275
  12   2.0000     -10.555096      -287.2188
  13   2.0000     -10.555025      -287.2168
  14   2.0000     -10.552844      -287.1575
  15   2.0000     -10.552728      -287.1543
  16   2.0000     -10.552689      -287.1533
  17   2.0000     -10.552570      -287.1500
  18   2.0000     -10.551412      -287.1185
  19   2.0000     -10.551294      -287.1153
  20   2.0000      -6.904575      -187.8830
  21   2.0000      -5.021721      -136.6480
  22   2.0000      -5.021394      -136.6391
  23   2.0000      -5.020153      -136.6053
  24   2.0000      -1.071354       -29.1530
  25   2.0000      -1.059453       -28.8292
  26   2.0000      -0.959985       -26.1225
  27   2.0000      -0.957052       -26.0427
  28   2.0000      -0.914585       -24.8871
  29   2.0000      -0.876488       -23.8505
  30   2.0000      -0.853273       -23.2187
  31   2.0000      -0.843549       -22.9541
  32   2.0000      -0.842978       -22.9386
  33   2.0000      -0.840598       -22.8738
  34   2.0000      -0.746617       -20.3165
  35   2.0000      -0.726640       -19.7729
  36   2.0000      -0.703596       -19.1458
  37   2.0000      -0.690989       -18.8028
  38   2.0000      -0.687733       -18.7142
  39   2.0000      -0.680131       -18.5073
  40   2.0000      -0.640684       -17.4339
  41   2.0000      -0.602022       -16.3818
  42   2.0000      -0.593765       -16.1572
  43   2.0000      -0.577720       -15.7206
  44   2.0000      -0.563321       -15.3288
  45   2.0000      -0.538993       -14.6667
  46   2.0000      -0.526261       -14.3203
  47   2.0000      -0.522935       -14.2298
  48   2.0000      -0.517344       -14.0776
  49   2.0000      -0.516223       -14.0471
  50   2.0000      -0.499730       -13.5983
  51   2.0000      -0.498825       -13.5737
  52   2.0000      -0.491364       -13.3707
  53   2.0000      -0.487751       -13.2724
  54   2.0000      -0.477249       -12.9866
  55   2.0000      -0.471801       -12.8383
  56   2.0000      -0.459335       -12.4991
  57   2.0000      -0.445430       -12.1208
  58   2.0000      -0.437991       -11.9184
  59   2.0000      -0.427209       -11.6249
  60   2.0000      -0.411843       -11.2068
  61   2.0000      -0.405574       -11.0362
  62   2.0000      -0.402515       -10.9530
  63   2.0000      -0.402391       -10.9496
  64   2.0000      -0.360989        -9.8230
  65   2.0000      -0.360756        -9.8167
  66   2.0000      -0.338438        -9.2094
  67   2.0000      -0.332275        -9.0416
  68   2.0000      -0.329641        -8.9700
  69   2.0000      -0.315292        -8.5795
  70   2.0000      -0.312475        -8.5029
  71   2.0000      -0.309431        -8.4200
  72   2.0000      -0.304170        -8.2769
  73   0.0000      -0.025815        -0.7025
  74   0.0000      -0.011375        -0.3095
  75   0.0000      -0.007359        -0.2002
  76   0.0000       0.008291         0.2256
  77   0.0000       0.020898         0.5687

MULLIKEN ATOMIC CHARGES
-----------------------
   0 C :   -0.134729
   1 C :   -0.139045
   2 C :   -0.156790
   3 C :   -0.056468
   4 C :   -0.159103
   5 C :   -0.164577
   6 P :    0.656464
   7 O :   -0.615224
   8 C :   -0.054429
   9 C :   -0.158119
  10 C :   -0.165894
  11 C :   -0.134677
  12 C :   -0.138712
  13 C :   -0.157809
  14 C :    0.100345
  15 C :   -0.181257
  16 C :   -0.094894
  17 C :   -0.139825
  18 C :   -0.061741
  19 N :   -0.310715
  20 H :    0.146708
  21 H :    0.147473
  22 H :    0.192631
  23 H :    0.175887
  24 H :    0.144448
  25 H :    0.177368
  26 H :    0.144308
  27 H :    0.146919
  28 H :    0.147838
  29 H :    0.191795
  30 H :    0.193782
  31 H :    0.158363
  32 H :    0.152567
  33 H :    0.147110
Sum of atomic charges:   -0.0000000

LOEWDIN ATOMIC CHARGES
----------------------
   0 C :   -0.133214
   1 C :   -0.139133
   2 C :   -0.117890
   3 C :   -0.228604
   4 C :   -0.126757
   5 C :   -0.141083
   6 P :    0.695716
   7 O :   -0.312668
   8 C :   -0.228418
   9 C :   -0.127082
  10 C :   -0.141074
  11 C :   -0.133209
  12 C :   -0.139031
  13 C :   -0.117836
  14 C :   -0.289276
  15 C :   -0.120203
  16 C :   -0.111904
  17 C :   -0.141035
  18 C :   -0.195377
  19 N :    0.120466
  20 H :    0.147899
  21 H :    0.148746
  22 H :    0.160775
  23 H :    0.152502
  24 H :    0.148030
  25 H :    0.152640
  26 H :    0.148024
  27 H :    0.147890
  28 H :    0.148780
  29 H :    0.160718
  30 H :    0.164755
  31 H :    0.152928
  32 H :    0.151340
  33 H :    0.142586

  Mayer bond orders larger than 0.100000
B(  0-C ,  1-C ) :   1.4413 B(  0-C ,  5-C ) :   1.4351 B(  0-C , 20-H ) :   0.9469
B(  1-C ,  2-C ) :   1.4298 B(  1-C , 21-H ) :   0.9485 B(  2-C ,  3-C ) :   1.4072
B(  2-C , 22-H ) :   0.9090 B(  3-C ,  4-C ) :   1.3804 B(  3-C ,  6-P ) :   0.9171
B(  4-C ,  5-C ) :   1.4924 B(  4-C , 23-H ) :   0.8998 B(  5-C , 24-H ) :   0.9456
B(  6-P ,  7-O ) :   1.9298 B(  6-P ,  8-C ) :   0.9182 B(  6-P , 14-C ) :   0.9039
B(  8-C ,  9-C ) :   1.3797 B(  8-C , 13-C ) :   1.4067 B(  9-C , 10-C ) :   1.4926
B(  9-C , 25-H ) :   0.8987 B( 10-C , 11-C ) :   1.4352 B( 10-C , 26-H ) :   0.9458
B( 11-C , 12-C ) :   1.4421 B( 11-C , 27-H ) :   0.9466 B( 12-C , 13-C ) :   1.4306
B( 12-C , 28-H ) :   0.9480 B( 13-C , 29-H ) :   0.9096 B( 14-C , 15-C ) :   1.4361
B( 14-C , 19-N ) :   1.2429 B( 15-C , 16-C ) :   1.4161 B( 15-C , 30-H ) :   0.9083
B( 16-C , 17-C ) :   1.4355 B( 16-C , 31-H ) :   0.9480 B( 17-C , 18-C ) :   1.3944
B( 17-C , 32-H ) :   0.9484 B( 18-C , 19-N ) :   1.5125 B( 18-C , 33-H ) :   0.9663

Dispersion correction           -0.002172155
FINAL SINGLE POINT ENERGY     -1127.555351265989

DIPOLE MOMENT
-------------

Method             : SCF
Type of density    : Electron Density
Multiplicity       :   1
Irrep              :   0
Energy             : -1127.5531791113307918 Eh
Relativity type    :
Basis              : AO
                                X                 Y                 Z
Electronic contribution:      0.252658466       2.001848684       4.026278410
Nuclear contribution   :     -0.342680824      -1.293330409      -5.265035241
                        -----------------------------------------
Total Dipole Moment    :     -0.090022359       0.708518275      -1.238756831
                        -----------------------------------------
Magnitude (a.u.)       :      1.429902325
Magnitude (Debye)      :      3.634522870

Rotational constants in cm-1:             0.010654             0.010550             0.007061
Rotational constants in MHz :           319.401810           316.277672           211.681332

                             ****ORCA TERMINATED NORMALLY****
TOTAL RUN TIME: 0 days 0 hours 2 minutes 13 seconds 275 msec
