                         Program Version 6.0.0  -   RELEASE   -
|  1> ! RI BP86 def2-SVP D3BJ TIGHTSCF Opt
|  2> %pal
|  3> nprocs 6
|  4> end
|  5>
|  6> * xyz 0 1
|  7> C      2.574068    0.169305    0.861759
|  8> C      1.588629    0.561238   -0.221990
|  9> P     -0.114653    0.125141    0.139642
| 10> O     -0.583761    0.637165    1.471393
| 11> C     -0.194830   -1.663032    0.004962
| 12> C     -1.551889   -2.251246    0.339036
| 13> C     -1.078120    0.757232   -1.236703
| 14> C     -1.193320    2.268741   -1.272478
| 15> H      2.301930    0.630156    1.816102
| 16> H      3.585347    0.492037    0.596966
| 17> H      2.586545   -0.914555    1.006045
| 18> H      1.647293    1.644849   -0.366933
| 19> H      1.882963    0.095375   -1.168538
| 20> H      0.546461   -2.096865    0.683888
| 21> H      0.090415   -1.957499   -1.010685
| 22> H     -2.318023   -1.883445   -0.349068
| 23> H     -1.853571   -1.974310    1.353682
| 24> H     -1.525092   -3.342870    0.271244
| 25> H     -0.636317    0.402734   -2.174122
| 26> H     -2.086626    0.335086   -1.178628
| 27> H     -1.639259    2.644013   -0.346453
| 28> H     -1.818526    2.586991   -2.111996
| 29> H     -0.209664    2.733758   -1.381604
| 30> **                         ****END OF INPUT****
 Total Charge           Charge          ....    0
 Multiplicity           Mult            ....    1
 Number of Electrons    NEL             ....   74
Dispersion correction           -0.036582028
FINAL SINGLE POINT ENERGY      -654.002588129043
Dispersion correction             ... done (  0.1 sec)
Dispersion correction           -0.036171701
FINAL SINGLE POINT ENERGY      -654.008658452603
Dispersion correction             ... done (  0.1 sec)
Dispersion correction           -0.035944600
FINAL SINGLE POINT ENERGY      -654.010201355200
Dispersion correction             ... done (  0.1 sec)
FINAL SINGLE POINT ENERGY      -654.010699156586
FINAL SINGLE POINT ENERGY      -654.010793595744
Dispersion correction             ... done (  0.1 sec)
Dispersion correction           -0.035886723
FINAL SINGLE POINT ENERGY      -654.010813096108
Dispersion correction             ... done (  0.1 sec)
Dispersion correction           -0.035904793
FINAL SINGLE POINT ENERGY      -654.010818878777
Dispersion correction             ... done (  0.1 sec)
                    ***********************HURRAY********************

CARTESIAN COORDINATES (ANGSTROEM)
---------------------------------
  C      2.567548    0.214941    0.935724
  C      1.683406    0.488870   -0.285830
  P     -0.089339    0.096249    0.063586
  O     -0.565645    0.612932    1.412936
  C     -0.227656   -1.739777   -0.105793
  C     -1.571875   -2.250851    0.424327
  C     -1.037539    0.793615   -1.362034
  C     -1.240580    2.305439   -1.213301
  H      2.148798    0.724329    1.826032
  H      3.603263    0.574932    0.772894
  H      2.622727   -0.868459    1.167998
  H      1.714314    1.566517   -0.554091
  H      2.010826   -0.078187   -1.184342
  H      0.610618   -2.168330    0.484105
  H     -0.053412   -2.021798   -1.167060
  H     -2.418724   -1.908991   -0.205507
  H     -1.743638   -1.866018    1.448958
  H     -1.600191   -3.358708    0.449980
  H     -0.521430    0.524135   -2.309203
  H     -2.016788    0.268881   -1.366597
  H     -1.671861    2.532023   -0.218252
  H     -1.920603    2.699816   -1.994878
  H     -0.282219    2.858440   -1.294131

 Multiplicity           Mult            ....    1
 Number of Electrons    NEL             ....   74
 Basis Dimension        Dim             ....  191

ORBITAL ENERGIES
----------------

  NO   OCC          E(Eh)            E(eV)
   0   2.0000     -76.399382     -2078.9329
   1   2.0000     -18.707532      -509.0578
   2   2.0000      -9.924436      -270.0576
   3   2.0000      -9.924412      -270.0570
   4   2.0000      -9.924343      -270.0551
   5   2.0000      -9.915675      -269.8192
   6   2.0000      -9.915613      -269.8176
   7   2.0000      -9.915547      -269.8157
   8   2.0000      -6.359833      -173.0599
   9   2.0000      -4.580942      -124.6538
  10   2.0000      -4.580940      -124.6537
  11   2.0000      -4.580764      -124.6489
  12   2.0000      -0.840149       -22.8616
  13   2.0000      -0.710264       -19.3273
  14   2.0000      -0.686258       -18.6740
  15   2.0000      -0.686184       -18.6720
  16   2.0000      -0.593742       -16.1565
  17   2.0000      -0.553639       -15.0653
  18   2.0000      -0.553518       -15.0620
  19   2.0000      -0.464611       -12.6427
  20   2.0000      -0.415648       -11.3104
  21   2.0000      -0.415554       -11.3078
  22   2.0000      -0.404840       -11.0163
  23   2.0000      -0.395520       -10.7627
  24   2.0000      -0.395403       -10.7595
  25   2.0000      -0.357740        -9.7346
  26   2.0000      -0.341481        -9.2922
  27   2.0000      -0.339895        -9.2490
  28   2.0000      -0.339773        -9.2457
  29   2.0000      -0.322892        -8.7863
  30   2.0000      -0.313523        -8.5314
  31   2.0000      -0.313445        -8.5293
  32   2.0000      -0.291058        -7.9201
  33   2.0000      -0.291000        -7.9185
  34   2.0000      -0.287138        -7.8134
  35   2.0000      -0.208012        -5.6603
  36   2.0000      -0.207999        -5.6599
  37   0.0000       0.016821         0.4577
  38   0.0000       0.038530         1.0485
  39   0.0000       0.038654         1.0518
  40   0.0000       0.053679         1.4607
  41   0.0000       0.062692         1.7059

MULLIKEN ATOMIC CHARGES
-----------------------
   0 C :   -0.040981
   1 C :   -0.177084
   2 P :    0.428581
   3 O :   -0.473740
   4 C :   -0.177404
   5 C :   -0.040904
   6 C :   -0.176977
   7 C :   -0.041062
   8 H :    0.060610
   9 H :    0.038666
  10 H :    0.034003
  11 H :    0.056713
  12 H :    0.043153
  13 H :    0.056575
  14 H :    0.043225
  15 H :    0.034045
  16 H :    0.060616
  17 H :    0.038606
  18 H :    0.043195
  19 H :    0.056839
  20 H :    0.060611
  21 H :    0.038696
  22 H :    0.034017
Sum of atomic charges:   -0.0000000

LOEWDIN ATOMIC CHARGES
----------------------
   0 C :   -0.080065
   1 C :   -0.201481
   2 P :    0.863429
   3 O :   -0.507068
   4 C :   -0.201596
   5 C :   -0.080061
   6 C :   -0.201520
   7 C :   -0.080076
   8 H :    0.038395
   9 H :    0.031886
  10 H :    0.027206
  11 H :    0.035934
  12 H :    0.029352
  13 H :    0.035916
  14 H :    0.029358
  15 H :    0.027238
  16 H :    0.038379
  17 H :    0.031866
  18 H :    0.029346
  19 H :    0.036044
  20 H :    0.038412
  21 H :    0.031916
  22 H :    0.027192

  Mayer bond orders larger than 0.100000
B(  0-C ,  1-C ) :   1.0860 B(  0-C ,  8-H ) :   0.9589 B(  0-C ,  9-H ) :   0.9609
B(  0-C , 10-H ) :   0.9672 B(  1-C ,  2-P ) :   0.9169 B(  1-C , 11-H ) :   0.9290
B(  1-C , 12-H ) :   0.9209 B(  2-P ,  3-O ) :   1.8634 B(  2-P ,  4-C ) :   0.9169
B(  2-P ,  6-C ) :   0.9172 B(  4-C ,  5-C ) :   1.0861 B(  4-C , 13-H ) :   0.9290
B(  4-C , 14-H ) :   0.9210 B(  5-C , 15-H ) :   0.9673 B(  5-C , 16-H ) :   0.9589
B(  5-C , 17-H ) :   0.9609 B(  6-C ,  7-C ) :   1.0862 B(  6-C , 18-H ) :   0.9209
B(  6-C , 19-H ) :   0.9290 B(  7-C , 20-H ) :   0.9589 B(  7-C , 21-H ) :   0.9609
B(  7-C , 22-H ) :   0.9673

Dispersion correction           -0.035908153
FINAL SINGLE POINT ENERGY      -654.010819751155

DIPOLE MOMENT
-------------

Method             : SCF
Type of density    : Electron Density
Multiplicity       :   1
Irrep              :   0
Energy             :  -653.9749115984946002 Eh
Relativity type    :
Basis              : AO
                                X                 Y                 Z
Electronic contribution:     -0.992469707       1.072947436       2.783228603
Nuclear contribution   :      1.433042792      -1.550227608      -4.031722284
                        -----------------------------------------
Total Dipole Moment    :      0.440573085      -0.477280172      -1.248493681
                        -----------------------------------------
Magnitude (a.u.)       :      1.407351227
Magnitude (Debye)      :      3.577202534

Rotational constants in cm-1:             0.052198             0.052087             0.033403
Rotational constants in MHz :          1564.846966          1561.520119          1001.400563

                             ****ORCA TERMINATED NORMALLY****
TOTAL RUN TIME: 0 days 0 hours 0 minutes 44 seconds 229 msec
