                         Program Version 6.0.0  -   RELEASE   -
|  1> ! RI BP86 def2-SVP D3BJ TIGHTSCF Opt
|  2> %pal
|  3> nprocs 6
|  4> end
|  5>
|  6> * xyz 0 1
|  7> C      4.806404   -0.552046   -0.434379
|  8> N      3.361494   -0.769644   -0.311549
|  9> C      3.113905   -1.957722    0.510473
| 10> C      2.759800   -0.895080   -1.651203
| 11> C      1.227763   -0.874240   -1.645491
| 12> C      0.655182    0.398443   -1.025030
| 13> P     -1.167281    0.388945   -0.946413
| 14> O     -1.681728    0.114732   -2.346329
| 15> C     -1.705722    1.973874   -0.311993
| 16> C     -0.978371    2.688206    0.649712
| 17> C     -1.441631    3.918503    1.121469
| 18> C     -2.635957    4.448500    0.637718
| 19> C     -3.368714    3.750393   -0.318796
| 20> C     -2.906015    2.521363   -0.789794
| 21> C     -1.640395   -0.870334    0.234972
| 22> C     -1.124142   -0.892243    1.537984
| 23> C     -1.506098   -1.890538    2.436132
| 24> C     -2.407833   -2.876974    2.042002
| 25> C     -2.928936   -2.866816    0.750256
| 26> C     -2.547286   -1.869211   -0.147289
| 27> H      5.309543   -1.387159   -0.935299
| 28> H      5.260996   -0.416474    0.553456
| 29> H      5.011537    0.364551   -0.998726
| 30> H      3.597225   -1.854107    1.488868
| 31> H      3.489066   -2.873082    0.038804
| 32> H      2.046312   -2.083358    0.715413
| 33> H      3.092071   -0.054291   -2.274545
| 34> H      3.107576   -1.809949   -2.148524
| 35> H      0.830888   -1.754815   -1.129688
| 36> H      0.872837   -0.953844   -2.680206
| 37> H      0.961463    1.266927   -1.619127
| 38> H      1.044783    0.539400   -0.012895
| 39> H     -0.044279    2.297958    1.043595
| 40> H     -0.869759    4.465201    1.867166
| 41> H     -2.995182    5.406357    1.004797
| 42> H     -4.299533    4.161776   -0.700620
| 43> H     -3.481331    1.982471   -1.541554
| 44> H     -0.419945   -0.132443    1.865741
| 45> H     -1.101698   -1.897866    3.445192
| 46> H     -2.706356   -3.653008    2.741998
| 47> H     -3.633306   -3.634410    0.440076
| 48> H     -2.957345   -1.867947   -1.156375
| 49> **                         ****END OF INPUT****
 Total Charge           Charge          ....    0
 Multiplicity           Mult            ....    1
 Number of Electrons    NEL             ....  154
Dispersion correction           -0.088026236
FINAL SINGLE POINT ENERGY     -1131.828819983236
Dispersion correction             ... done (  0.1 sec)
Dispersion correction           -0.088326677
FINAL SINGLE POINT ENERGY     -1131.837896857381
Dispersion correction             ... done (  0.1 sec)
Dispersion correction           -0.089005001
FINAL SINGLE POINT ENERGY     -1131.840097324565
Dispersion correction             ... done (  0.1 sec)
FINAL SINGLE POINT ENERGY     -1131.840703798928
FINAL SINGLE POINT ENERGY     -1131.840836328665
FINAL SINGLE POINT ENERGY     -1131.840919559087
FINAL SINGLE POINT ENERGY     -1131.840954985759
Dispersion correction             ... done (  0.1 sec)
Dispersion correction           -0.089867207
FINAL SINGLE POINT ENERGY     -1131.840970478944
Dispersion correction             ... done (  0.1 sec)
Dispersion correction           -0.089931769
FINAL SINGLE POINT ENERGY     -1131.840975384796
Dispersion correction             ... done (  0.1 sec)
                    ***********************HURRAY********************

CARTESIAN COORDINATES (ANGSTROEM)
---------------------------------
  C      4.469995   -0.626919   -0.087245
  N      3.047708   -0.869836   -0.257076
  C      2.592699   -2.002287    0.535585
  C      2.665220   -0.965475   -1.664791
  C      1.152978   -0.827371   -1.880896
  C      0.614229    0.489434   -1.305973
  P     -1.204926    0.433075   -1.098057
  O     -1.999183    0.108860   -2.353331
  C     -1.683329    2.034638   -0.348141
  C     -0.922584    2.705691    0.631601
  C     -1.379487    3.922350    1.162729
  C     -2.592772    4.474113    0.715900
  C     -3.346507    3.812903   -0.269070
  C     -2.892965    2.596887   -0.803253
  C     -1.456418   -0.843558    0.202325
  C     -0.847986   -0.798877    1.472802
  C     -1.064185   -1.839163    2.390121
  C     -1.886591   -2.925552    2.041576
  C     -2.495967   -2.969831    0.776159
  C     -2.282671   -1.930324   -0.143609
  H      5.115503   -1.471912   -0.452398
  H      4.703760   -0.469696    0.986065
  H      4.769423    0.287526   -0.639268
  H      2.867338   -1.850563    1.599241
  H      3.038139   -2.979548    0.203204
  H      1.490124   -2.098793    0.491950
  H      3.183743   -0.145302   -2.207064
  H      3.021708   -1.926027   -2.128518
  H      0.627545   -1.686501   -1.410480
  H      0.919378   -0.896588   -2.962090
  H      0.850415    1.354292   -1.961445
  H      1.094592    0.677360   -0.321105
  H      0.036273    2.289978    0.977758
  H     -0.783236    4.445261    1.926327
  H     -2.948496    5.428377    1.134145
  H     -4.291880    4.250296   -0.625583
  H     -3.454341    2.063588   -1.586424
  H     -0.202582    0.047118    1.754395
  H     -0.588560   -1.803401    3.382340
  H     -2.053438   -3.740859    2.762377
  H     -3.140717   -3.819793    0.504011
  H     -2.741949   -1.933576   -1.144797

 Multiplicity           Mult            ....    1
 Number of Electrons    NEL             ....  154
 Basis Dimension        Dim             ....  394

ORBITAL ENERGIES
----------------

  NO   OCC          E(Eh)            E(eV)
   0   2.0000     -76.408755     -2079.1879
   1   2.0000     -18.712614      -509.1961
   2   2.0000     -14.012291      -381.2938
   3   2.0000      -9.940413      -270.4924
   4   2.0000      -9.937375      -270.4097
   5   2.0000      -9.933916      -270.3156
   6   2.0000      -9.933010      -270.2909
   7   2.0000      -9.932481      -270.2766
   8   2.0000      -9.929128      -270.1853
   9   2.0000      -9.928949      -270.1804
  10   2.0000      -9.928813      -270.1767
  11   2.0000      -9.928645      -270.1722
  12   2.0000      -9.926458      -270.1127
  13   2.0000      -9.926194      -270.1055
  14   2.0000      -9.925911      -270.0978
  15   2.0000      -9.925114      -270.0761
  16   2.0000      -9.925061      -270.0746
  17   2.0000      -9.924690      -270.0645
  18   2.0000      -9.919177      -269.9145
  19   2.0000      -9.918396      -269.8933
  20   2.0000      -6.367472      -173.2677
  21   2.0000      -4.588826      -124.8683
  22   2.0000      -4.588730      -124.8657
  23   2.0000      -4.588177      -124.8506
  24   2.0000      -0.846706       -23.0401
  25   2.0000      -0.841528       -22.8991
  26   2.0000      -0.778129       -21.1740
  27   2.0000      -0.776343       -21.1254
  28   2.0000      -0.714720       -19.4485
  29   2.0000      -0.686568       -18.6825
  30   2.0000      -0.675938       -18.3932
  31   2.0000      -0.675302       -18.3759
  32   2.0000      -0.673762       -18.3340
  33   2.0000      -0.635486       -17.2925
  34   2.0000      -0.633398       -17.2356
  35   2.0000      -0.578109       -15.7311
  36   2.0000      -0.554756       -15.0957
  37   2.0000      -0.547398       -14.8955
  38   2.0000      -0.546503       -14.8711
  39   2.0000      -0.539896       -14.6913
  40   2.0000      -0.508837       -13.8462
  41   2.0000      -0.495505       -13.4834
  42   2.0000      -0.471826       -12.8390
  43   2.0000      -0.454571       -12.3695
  44   2.0000      -0.441740       -12.0204
  45   2.0000      -0.424495       -11.5511
  46   2.0000      -0.418385       -11.3848
  47   2.0000      -0.414073       -11.2675
  48   2.0000      -0.410133       -11.1603
  49   2.0000      -0.406768       -11.0687
  50   2.0000      -0.401863       -10.9352
  51   2.0000      -0.389794       -10.6068
  52   2.0000      -0.381797       -10.3892
  53   2.0000      -0.381661       -10.3855
  54   2.0000      -0.379225       -10.3192
  55   2.0000      -0.374972       -10.2035
  56   2.0000      -0.359783        -9.7902
  57   2.0000      -0.348772        -9.4906
  58   2.0000      -0.341132        -9.2827
  59   2.0000      -0.337169        -9.1748
  60   2.0000      -0.333011        -9.0617
  61   2.0000      -0.330607        -8.9963
  62   2.0000      -0.324569        -8.8320
  63   2.0000      -0.317859        -8.6494
  64   2.0000      -0.311190        -8.4679
  65   2.0000      -0.308435        -8.3929
  66   2.0000      -0.305966        -8.3258
  67   2.0000      -0.296645        -8.0721
  68   2.0000      -0.293766        -7.9938
  69   2.0000      -0.291315        -7.9271
  70   2.0000      -0.244735        -6.6596
  71   2.0000      -0.239792        -6.5251
  72   2.0000      -0.237782        -6.4704
  73   2.0000      -0.233797        -6.3619
  74   2.0000      -0.216086        -5.8800
  75   2.0000      -0.212986        -5.7957
  76   2.0000      -0.181643        -4.9428
  77   0.0000      -0.069346        -1.8870
  78   0.0000      -0.054602        -1.4858
  79   0.0000      -0.050253        -1.3675
  80   0.0000      -0.047138        -1.2827
  81   0.0000       0.018792         0.5114

MULLIKEN ATOMIC CHARGES
-----------------------
   0 C :    0.066766
   1 N :   -0.338409
   2 C :    0.052261
   3 C :    0.100773
   4 C :   -0.016907
   5 C :   -0.145001
   6 P :    0.547803
   7 O :   -0.460792
   8 C :   -0.085142
   9 C :   -0.024195
  10 C :    0.001107
  11 C :    0.008010
  12 C :    0.002845
  13 C :    0.000820
  14 C :   -0.127371
  15 C :   -0.003683
  16 C :   -0.001856
  17 C :    0.006617
  18 C :    0.002210
  19 C :    0.001328
  20 H :   -0.001954
  21 H :    0.028874
  22 H :    0.031122
  23 H :    0.026738
  24 H :   -0.001973
  25 H :    0.051847
  26 H :    0.011384
  27 H :   -0.002468
  28 H :    0.035580
  29 H :    0.040836
  30 H :    0.059216
  31 H :    0.044890
  32 H :    0.003317
  33 H :    0.004389
  34 H :    0.008686
  35 H :    0.010258
  36 H :    0.022608
  37 H :   -0.005678
  38 H :    0.003886
  39 H :    0.008202
  40 H :    0.009707
  41 H :    0.023351
Sum of atomic charges:   -0.0000000

LOEWDIN ATOMIC CHARGES
----------------------
   0 C :   -0.002527
   1 N :   -0.119327
   2 C :   -0.004223
   3 C :    0.018460
   4 C :   -0.057165
   5 C :   -0.188981
   6 P :    0.882617
   7 O :   -0.498471
   8 C :   -0.183804
   9 C :   -0.035967
  10 C :   -0.029882
  11 C :   -0.022095
  12 C :   -0.026469
  13 C :   -0.015762
  14 C :   -0.183732
  15 C :   -0.032573
  16 C :   -0.031265
  17 C :   -0.023789
  18 C :   -0.027984
  19 C :   -0.019772
  20 H :    0.000852
  21 H :    0.023704
  22 H :    0.024237
  23 H :    0.024424
  24 H :    0.002066
  25 H :    0.025136
  26 H :    0.023296
  27 H :    0.004809
  28 H :    0.027637
  29 H :    0.040420
  30 H :    0.039417
  31 H :    0.027272
  32 H :    0.027380
  33 H :    0.033948
  34 H :    0.034526
  35 H :    0.035598
  36 H :    0.038444
  37 H :    0.028129
  38 H :    0.033604
  39 H :    0.034303
  40 H :    0.035274
  41 H :    0.038235

  Mayer bond orders larger than 0.100000
B(  0-C ,  1-N ) :   1.0373 B(  0-C , 20-H ) :   0.9382 B(  0-C , 21-H ) :   0.9670
B(  0-C , 22-H ) :   0.9664 B(  1-N ,  2-C ) :   1.0235 B(  1-N ,  3-C ) :   1.0266
B(  2-C , 23-H ) :   0.9654 B(  2-C , 24-H ) :   0.9349 B(  2-C , 25-H ) :   0.9586
B(  3-C ,  4-C ) :   1.0825 B(  3-C , 26-H ) :   0.9327 B(  3-C , 27-H ) :   0.9130
B(  4-C ,  5-C ) :   1.0548 B(  4-C , 28-H ) :   0.9281 B(  4-C , 29-H ) :   0.9252
B(  5-C ,  6-P ) :   0.9351 B(  5-C , 30-H ) :   0.9262 B(  5-C , 31-H ) :   0.8844
B(  6-P ,  7-O ) :   1.8784 B(  6-P ,  8-C ) :   0.8607 B(  6-P , 14-C ) :   0.8663
B(  8-C ,  9-C ) :   1.3553 B(  8-C , 13-C ) :   1.3904 B(  9-C , 10-C ) :   1.4019
B(  9-C , 32-H ) :   0.9678 B( 10-C , 11-C ) :   1.3804 B( 10-C , 33-H ) :   0.9738
B( 11-C , 12-C ) :   1.3823 B( 11-C , 34-H ) :   0.9758 B( 12-C , 13-C ) :   1.3675
B( 12-C , 35-H ) :   0.9785 B( 13-C , 36-H ) :   0.9702 B( 14-C , 15-C ) :   1.3474
B( 14-C , 19-C ) :   1.3921 B( 15-C , 16-C ) :   1.3970 B( 15-C , 37-H ) :   0.9696
B( 16-C , 17-C ) :   1.3760 B( 16-C , 38-H ) :   0.9752 B( 17-C , 18-C ) :   1.3829
B( 17-C , 39-H ) :   0.9760 B( 18-C , 19-C ) :   1.3605 B( 18-C , 40-H ) :   0.9790
B( 19-C , 41-H ) :   0.9689

Dispersion correction           -0.089949730
FINAL SINGLE POINT ENERGY     -1131.840976539615

DIPOLE MOMENT
-------------

Method             : SCF
Type of density    : Electron Density
Multiplicity       :   1
Irrep              :   0
Energy             : -1131.7510268093647028 Eh
Relativity type    :
Basis              : AO
                                X                 Y                 Z
Electronic contribution:    -21.400109178       7.717956767      -2.345761473
Nuclear contribution   :     22.280697711      -7.609845066       3.537305180
                        -----------------------------------------
Total Dipole Moment    :      0.880588533       0.108111701       1.191543707
                        -----------------------------------------
Magnitude (a.u.)       :      1.485564105
Magnitude (Debye)      :      3.776003871

Rotational constants in cm-1:             0.012425             0.007434             0.006069
Rotational constants in MHz :           372.502689           222.875880           181.938187

                             ****ORCA TERMINATED NORMALLY****
TOTAL RUN TIME: 0 days 0 hours 3 minutes 9 seconds 729 msec
