                         Program Version 6.0.0  -   RELEASE   -
|  1> ! RIJCOSX M062X def2-TZVP D3ZERO NormalSCF
|  2> %pal
|  3> nprocs 6
|  4> end
|  5>
|  6> * xyz 0 1
|  7>   C          -1.64813470179489      2.62524120274101      1.47402079831844
|  8>   C          -0.72212595237781      2.75783251625691      0.29033726274922
|  9>   C          -0.63872142768855      3.97524179223692     -0.41556298302822
| 10>   C           0.19962592736494      4.12681354445673     -1.53132577973060
| 11>   C           0.98283025056998      3.04932159836839     -1.97161608541821
| 12>   C           0.92018688087102      1.82739099393757     -1.28489575360181
| 13>   C           0.08117968870029      1.67222616077987     -0.16226492501287
| 14>   P           0.03928759036396      0.07111619141495      0.73935265896589
| 15>   O           0.12390094801381      0.22082169493760      2.25678483785589
| 16>   C           1.41236407706962     -0.91511051174033      0.01899129488438
| 17>   C           1.13525310005724     -1.92698093793660     -0.92304910951608
| 18>   C           2.16879620027427     -2.70380228472045     -1.46813363075499
| 19>   C           3.49208874827669     -2.46706373433611     -1.06671437985577
| 20>   C           3.77196964108707     -1.45866604992676     -0.13093550103980
| 21>   C           2.75260999162615     -0.66260196434915      0.42972789115471
| 22>   C           3.09128214832386      0.42736567349131      1.41636725001903
| 23>   C          -1.49659296335948     -0.75900898430083      0.16606809543596
| 24>   C          -2.24021182097401     -0.20952446429396     -0.89853165296658
| 25>   C          -3.42902608033080     -0.81535284841244     -1.33248754488313
| 26>   C          -3.87925000141448     -1.98150016459922     -0.69549179098080
| 27>   C          -3.14015636229528     -2.53304360190049      0.36302874382911
| 28>   C          -1.94162061985658     -1.94562093692214      0.81644257554121
| 29>   C          -1.16110688270497     -2.57654415917349      1.94292812214264
| 30>   H          -2.08294272458838      3.60409393173272      1.75297179475491
| 31>   H          -1.11597065430789      2.18254198012387      2.33849892357360
| 32>   H          -2.48555760201894      1.93143796163125      1.24505440451613
| 33>   H          -1.25053129643011      4.82559691194141     -0.07436226117723
| 34>   H           0.24065657761300      5.09329687255357     -2.05701818804789
| 35>   H           1.64310981902767      3.15745447932366     -2.84535555039139
| 36>   H           1.53310048736291      0.97821618416376     -1.62332716333688
| 37>   H           0.09448432478768     -2.10686008710950     -1.23254645088026
| 38>   H           1.93852834107656     -3.49100296147183     -2.20186437617231
| 39>   H           4.31380728328097     -3.07041240156830     -1.48251926378527
| 40>   H           4.81340749737427     -1.27813232171696      0.17997234477742
| 41>   H           2.89048803307147      1.42914233689084      0.97948724276730
| 42>   H           4.15898641839166      0.38806943974565      1.70528907302645
| 43>   H           2.44887224793496      0.35394721711113      2.31547026568346
| 44>   H          -1.88169784405225      0.70634319205236     -1.39246208470499
| 45>   H          -4.00033435111498     -0.37530718092198     -2.16377530130269
| 46>   H          -4.81220633579616     -2.46644612946569     -1.02193365176252
| 47>   H          -3.49929462205689     -3.44855564262699      0.85968657934538
| 48>   H          -0.20037677545498     -2.99327226442829      1.57082145630030
| 49>   H          -1.73103477940848     -3.40108584070816      2.41233186003316
| 50>   H          -0.88992042449413     -1.81761740326185      2.70253995267567
| 51> **                         ****END OF INPUT****

CARTESIAN COORDINATES (ANGSTROEM)
---------------------------------
  C     -1.648135    2.625241    1.474021
  C     -0.722126    2.757833    0.290337
  C     -0.638721    3.975242   -0.415563
  C      0.199626    4.126814   -1.531326
  C      0.982830    3.049322   -1.971616
  C      0.920187    1.827391   -1.284896
  C      0.081180    1.672226   -0.162265
  P      0.039288    0.071116    0.739353
  O      0.123901    0.220822    2.256785
  C      1.412364   -0.915111    0.018991
  C      1.135253   -1.926981   -0.923049
  C      2.168796   -2.703802   -1.468134
  C      3.492089   -2.467064   -1.066714
  C      3.771970   -1.458666   -0.130936
  C      2.752610   -0.662602    0.429728
  C      3.091282    0.427366    1.416367
  C     -1.496593   -0.759009    0.166068
  C     -2.240212   -0.209524   -0.898532
  C     -3.429026   -0.815353   -1.332488
  C     -3.879250   -1.981500   -0.695492
  C     -3.140156   -2.533044    0.363029
  C     -1.941621   -1.945621    0.816443
  C     -1.161107   -2.576544    1.942928
  H     -2.082943    3.604094    1.752972
  H     -1.115971    2.182542    2.338499
  H     -2.485558    1.931438    1.245054
  H     -1.250531    4.825597   -0.074362
  H      0.240657    5.093297   -2.057018
  H      1.643110    3.157454   -2.845356
  H      1.533100    0.978216   -1.623327
  H      0.094484   -2.106860   -1.232546
  H      1.938528   -3.491003   -2.201864
  H      4.313807   -3.070412   -1.482519
  H      4.813407   -1.278132    0.179972
  H      2.890488    1.429142    0.979487
  H      4.158986    0.388069    1.705289
  H      2.448872    0.353947    2.315470
  H     -1.881698    0.706343   -1.392462
  H     -4.000334   -0.375307   -2.163775
  H     -4.812206   -2.466446   -1.021934
  H     -3.499295   -3.448556    0.859687
  H     -0.200377   -2.993272    1.570821
  H     -1.731035   -3.401086    2.412332
  H     -0.889920   -1.817617    2.702540

 Total Charge           Charge          ....    0
 Multiplicity           Mult            ....    1
 Number of Electrons    NEL             ....  170
 Basis Dimension        Dim             ....  845

ORBITAL ENERGIES
----------------

  NO   OCC          E(Eh)            E(eV)
   0   2.0000     -78.098159     -2125.1590
   1   2.0000     -19.563298      -532.3444
   2   2.0000     -10.567851      -287.5658
   3   2.0000     -10.567847      -287.5657
   4   2.0000     -10.567829      -287.5653
   5   2.0000     -10.558886      -287.3219
   6   2.0000     -10.558884      -287.3218
   7   2.0000     -10.558859      -287.3212
   8   2.0000     -10.557837      -287.2933
   9   2.0000     -10.557836      -287.2933
  10   2.0000     -10.557816      -287.2928
  11   2.0000     -10.556877      -287.2672
  12   2.0000     -10.556869      -287.2670
  13   2.0000     -10.556818      -287.2656
  14   2.0000     -10.553226      -287.1679
  15   2.0000     -10.553211      -287.1675
  16   2.0000     -10.553183      -287.1667
  17   2.0000     -10.551777      -287.1285
  18   2.0000     -10.551748      -287.1277
  19   2.0000     -10.551744      -287.1276
  20   2.0000     -10.528330      -286.4904
  21   2.0000     -10.528253      -286.4883
  22   2.0000     -10.528230      -286.4877
  23   2.0000      -6.903968      -187.8665
  24   2.0000      -5.021152      -136.6325
  25   2.0000      -5.021144      -136.6323
  26   2.0000      -5.019280      -136.5815
  27   2.0000      -1.060557       -28.8592
  28   2.0000      -0.968703       -26.3598
  29   2.0000      -0.962847       -26.2004
  30   2.0000      -0.962842       -26.2003
  31   2.0000      -0.873761       -23.7762
  32   2.0000      -0.872736       -23.7484
  33   2.0000      -0.872700       -23.7474
  34   2.0000      -0.864160       -23.5150
  35   2.0000      -0.842340       -22.9212
  36   2.0000      -0.842324       -22.9208
  37   2.0000      -0.778972       -21.1969
  38   2.0000      -0.772107       -21.0101
  39   2.0000      -0.772040       -21.0083
  40   2.0000      -0.726230       -19.7617
  41   2.0000      -0.693174       -18.8622
  42   2.0000      -0.693150       -18.8616
  43   2.0000      -0.675629       -18.3848
  44   2.0000      -0.664894       -18.0927
  45   2.0000      -0.664851       -18.0915
  46   2.0000      -0.627359       -17.0713
  47   2.0000      -0.583229       -15.8705
  48   2.0000      -0.583222       -15.8703
  49   2.0000      -0.560872       -15.2621
  50   2.0000      -0.539933       -14.6923
  51   2.0000      -0.539876       -14.6908
  52   2.0000      -0.534774       -14.5519
  53   2.0000      -0.522356       -14.2140
  54   2.0000      -0.522348       -14.2138
  55   2.0000      -0.508456       -13.8358
  56   2.0000      -0.496637       -13.5142
  57   2.0000      -0.496557       -13.5120
  58   2.0000      -0.484017       -13.1708
  59   2.0000      -0.477511       -12.9937
  60   2.0000      -0.477487       -12.9931
  61   2.0000      -0.472472       -12.8566
  62   2.0000      -0.469221       -12.7681
  63   2.0000      -0.469064       -12.7639
  64   2.0000      -0.460260       -12.5243
  65   2.0000      -0.444241       -12.0884
  66   2.0000      -0.444137       -12.0856
  67   2.0000      -0.440995       -12.0001
  68   2.0000      -0.424712       -11.5570
  69   2.0000      -0.424643       -11.5551
  70   2.0000      -0.423265       -11.5176
  71   2.0000      -0.411726       -11.2036
  72   2.0000      -0.411042       -11.1850
  73   2.0000      -0.410963       -11.1829
  74   2.0000      -0.403007       -10.9664
  75   2.0000      -0.399961       -10.8835
  76   2.0000      -0.399866       -10.8809
  77   2.0000      -0.329271        -8.9599
  78   2.0000      -0.329139        -8.9563
  79   2.0000      -0.318995        -8.6803
  80   2.0000      -0.312911        -8.5147
  81   2.0000      -0.312829        -8.5125
  82   2.0000      -0.303597        -8.2613
  83   2.0000      -0.302376        -8.2281
  84   2.0000      -0.302334        -8.2269
  85   0.0000      -0.010571        -0.2876
  86   0.0000      -0.004962        -0.1350
  87   0.0000      -0.004720        -0.1284
  88   0.0000       0.001110         0.0302
  89   0.0000       0.018501         0.5034

MULLIKEN ATOMIC CHARGES
-----------------------
   0 C :   -0.485820
   1 C :    0.042036
   2 C :   -0.139767
   3 C :   -0.132617
   4 C :   -0.169088
   5 C :   -0.127826
   6 C :   -0.149592
   7 P :    0.701994
   8 O :   -0.629729
   9 C :   -0.146801
  10 C :   -0.130280
  11 C :   -0.166587
  12 C :   -0.134403
  13 C :   -0.137850
  14 C :    0.036123
  15 C :   -0.484568
  16 C :   -0.145015
  17 C :   -0.126677
  18 C :   -0.169640
  19 C :   -0.134262
  20 C :   -0.138912
  21 C :    0.038978
  22 C :   -0.489303
  23 H :    0.131509
  24 H :    0.210027
  25 H :    0.170291
  26 H :    0.137994
  27 H :    0.147751
  28 H :    0.148246
  29 H :    0.192359
  30 H :    0.193279
  31 H :    0.148735
  32 H :    0.147111
  33 H :    0.138654
  34 H :    0.170538
  35 H :    0.131743
  36 H :    0.209729
  37 H :    0.192575
  38 H :    0.148843
  39 H :    0.147395
  40 H :    0.138717
  41 H :    0.171189
  42 H :    0.131994
  43 H :    0.210930
Sum of atomic charges:   -0.0000000

LOEWDIN ATOMIC CHARGES
----------------------
   0 C :   -0.266668
   1 C :   -0.149467
   2 C :   -0.115927
   3 C :   -0.131545
   4 C :   -0.147649
   5 C :   -0.133713
   6 C :   -0.209442
   7 P :    0.711202
   8 O :   -0.319091
   9 C :   -0.209380
  10 C :   -0.133921
  11 C :   -0.147689
  12 C :   -0.131559
  13 C :   -0.115930
  14 C :   -0.149342
  15 C :   -0.266465
  16 C :   -0.209290
  17 C :   -0.133635
  18 C :   -0.147634
  19 C :   -0.131520
  20 C :   -0.115956
  21 C :   -0.149408
  22 C :   -0.266790
  23 H :    0.127851
  24 H :    0.147838
  25 H :    0.138694
  26 H :    0.150574
  27 H :    0.148843
  28 H :    0.148378
  29 H :    0.161355
  30 H :    0.161346
  31 H :    0.148378
  32 H :    0.148813
  33 H :    0.150568
  34 H :    0.138824
  35 H :    0.127868
  36 H :    0.147764
  37 H :    0.161314
  38 H :    0.148383
  39 H :    0.148828
  40 H :    0.150572
  41 H :    0.138853
  42 H :    0.127940
  43 H :    0.147837

  Mayer bond orders larger than 0.100000
B(  0-C ,  1-C ) :   0.9432 B(  0-C , 23-H ) :   0.9666 B(  0-C , 24-H ) :   0.9630
B(  0-C , 25-H ) :   0.9470 B(  1-C ,  2-C ) :   1.4520 B(  1-C ,  6-C ) :   1.3231
B(  2-C ,  3-C ) :   1.4432 B(  2-C , 26-H ) :   0.9327 B(  3-C ,  4-C ) :   1.4428
B(  3-C , 27-H ) :   0.9483 B(  4-C ,  5-C ) :   1.4533 B(  4-C , 28-H ) :   0.9435
B(  5-C ,  6-C ) :   1.3373 B(  5-C , 29-H ) :   0.9334 B(  6-C ,  7-P ) :   0.9064
B(  7-P ,  8-O ) :   1.8091 B(  7-P ,  9-C ) :   0.9039 B(  7-P , 16-C ) :   0.9036
B(  9-C , 10-C ) :   1.3372 B(  9-C , 14-C ) :   1.3271 B( 10-C , 11-C ) :   1.4534
B( 10-C , 30-H ) :   0.9327 B( 11-C , 12-C ) :   1.4425 B( 11-C , 31-H ) :   0.9429
B( 12-C , 13-C ) :   1.4432 B( 12-C , 32-H ) :   0.9489 B( 13-C , 14-C ) :   1.4554
B( 13-C , 33-H ) :   0.9308 B( 14-C , 15-C ) :   0.9439 B( 15-C , 34-H ) :   0.9469
B( 15-C , 35-H ) :   0.9661 B( 15-C , 36-H ) :   0.9627 B( 16-C , 17-C ) :   1.3357
B( 16-C , 21-C ) :   1.3241 B( 17-C , 18-C ) :   1.4544 B( 17-C , 37-H ) :   0.9325
B( 18-C , 19-C ) :   1.4426 B( 18-C , 38-H ) :   0.9429 B( 19-C , 20-C ) :   1.4437
B( 19-C , 39-H ) :   0.9486 B( 20-C , 21-C ) :   1.4537 B( 20-C , 40-H ) :   0.9314
B( 21-C , 22-C ) :   0.9409 B( 22-C , 41-H ) :   0.9465 B( 22-C , 42-H ) :   0.9667
B( 22-C , 43-H ) :   0.9632

Dispersion correction           -0.003678470
FINAL SINGLE POINT ENERGY     -1229.445453096950

DIPOLE MOMENT
-------------

Method             : SCF
Type of density    : Electron Density
Multiplicity       :   1
Irrep              :   0
Energy             : -1229.4417746271262786 Eh
Relativity type    :
Basis              : AO
                                X                 Y                 Z
Electronic contribution:     -0.164502195      -0.257336899      -2.467079081
Nuclear contribution   :      0.092913835       0.127973771       1.137165074
                        -----------------------------------------
Total Dipole Moment    :     -0.071588360      -0.129363128      -1.329914007
                        -----------------------------------------
Magnitude (a.u.)       :      1.338107237
Magnitude (Debye)      :      3.401198300

Rotational constants in cm-1:             0.008976             0.008966             0.005881
Rotational constants in MHz :           269.107218           268.800749           176.319774

                             ****ORCA TERMINATED NORMALLY****
TOTAL RUN TIME: 0 days 0 hours 3 minutes 34 seconds 269 msec
