                         Program Version 6.0.0  -   RELEASE   -
|  1> ! RI BP86 def2-SVP D3BJ TIGHTSCF Opt
|  2> %pal
|  3> nprocs 6
|  4> end
|  5>
|  6> * xyz 0 1
|  7> C      7.223109    1.674506    0.720642
|  8> C      5.873663    1.151122    0.253295
|  9> C      4.796687    1.354634    1.320138
| 10> C      3.398233    0.929705    0.859574
| 11> C      3.288263   -0.566450    0.574372
| 12> C      1.849329   -1.048452    0.409555
| 13> P      0.973617   -0.494155   -1.049102
| 14> O      1.863609   -0.481447   -2.263613
| 15> C     -0.411023   -1.617365   -1.301502
| 16> C     -1.058976   -2.211581   -0.055588
| 17> C     -2.320649   -3.002924   -0.404099
| 18> C     -2.960198   -3.604338    0.849914
| 19> C     -4.168412   -4.491931    0.547270
| 20> C     -5.346086   -3.734765   -0.044466
| 21> C      0.269824    1.134352   -0.769298
| 22> C     -0.621413    1.321916    0.449666
| 23> C     -1.011222    2.782870    0.700385
| 24> C     -1.793884    3.463521   -0.427839
| 25> C     -3.122172    2.775624   -0.746649
| 26> C     -3.911671    3.550678   -1.790538
| 27> H      7.554702    1.152091    1.623945
| 28> H      7.978447    1.522575   -0.056505
| 29> H      7.173104    2.745108    0.941648
| 30> H      5.975787    0.087717    0.011841
| 31> H      5.586583    1.670127   -0.668308
| 32> H      4.759199    2.416692    1.593812
| 33> H      5.066888    0.804626    2.230343
| 34> H      2.681027    1.206694    1.641177
| 35> H      3.135642    1.498217   -0.037477
| 36> H      3.853246   -0.813485   -0.330481
| 37> H      3.743142   -1.125248    1.401348
| 38> H      1.894964   -2.142409    0.345494
| 39> H      1.273563   -0.822809    1.312065
| 40> H     -0.045562   -2.443030   -1.922910
| 41> H     -1.161032   -1.088396   -1.899642
| 42> H     -0.343597   -2.871379    0.446720
| 43> H     -1.305003   -1.424481    0.660190
| 44> H     -2.068226   -3.803868   -1.110120
| 45> H     -3.032882   -2.338285   -0.905807
| 46> H     -3.256886   -2.801392    1.536126
| 47> H     -2.213253   -4.210796    1.377602
| 48> H     -3.876689   -5.301612   -0.131226
| 49> H     -4.493299   -4.964452    1.481662
| 50> H     -5.112279   -3.339053   -1.036527
| 51> H     -6.206708   -4.402312   -0.148695
| 52> H     -5.641514   -2.901800    0.600105
| 53> H      1.090817    1.855742   -0.726995
| 54> H     -0.300521    1.380326   -1.672045
| 55> H     -0.103123    0.953105    1.340111
| 56> H     -1.524451    0.715646    0.345741
| 57> H     -1.605079    2.829705    1.622122
| 58> H     -0.101690    3.366366    0.890866
| 59> H     -1.177652    3.519472   -1.333200
| 60> H     -1.990977    4.500863   -0.126716
| 61> H     -3.722872    2.685480    0.166184
| 62> H     -2.946544    1.762415   -1.124548
| 63> H     -3.341309    3.650312   -2.719199
| 64> H     -4.846939    3.031831   -2.020660
| 65> H     -4.159650    4.554178   -1.430158
| 66> **                         ****END OF INPUT****
 Total Charge           Charge          ....    0
 Multiplicity           Mult            ....    1
 Number of Electrons    NEL             ....  170
Dispersion correction           -0.098112827
FINAL SINGLE POINT ENERGY     -1125.441880180253
Dispersion correction             ... done (  0.1 sec)
Dispersion correction           -0.097070658
FINAL SINGLE POINT ENERGY     -1125.454254760078
Dispersion correction             ... done (  0.1 sec)
Dispersion correction           -0.096675928
FINAL SINGLE POINT ENERGY     -1125.456179502619
Dispersion correction             ... done (  0.1 sec)
FINAL SINGLE POINT ENERGY     -1125.456720174074
FINAL SINGLE POINT ENERGY     -1125.456854096964
FINAL SINGLE POINT ENERGY     -1125.456929150789
FINAL SINGLE POINT ENERGY     -1125.456976506435
FINAL SINGLE POINT ENERGY     -1125.456997558666
FINAL SINGLE POINT ENERGY     -1125.457025828985
Dispersion correction             ... done (  0.1 sec)
Dispersion correction           -0.096666536
FINAL SINGLE POINT ENERGY     -1125.457037893721
Dispersion correction             ... done (  0.1 sec)
Dispersion correction           -0.096626958
FINAL SINGLE POINT ENERGY     -1125.457042697805
Dispersion correction             ... done (  0.1 sec)
                    ***********************HURRAY********************

CARTESIAN COORDINATES (ANGSTROEM)
---------------------------------
  C      7.422565    1.398033    0.156905
  C      5.975283    0.928920   -0.018290
  C      5.053947    1.370983    1.127946
  C      3.576769    0.999810    0.932766
  C      3.309830   -0.510607    0.876513
  C      1.821901   -0.892181    0.821397
  P      1.017405   -0.284395   -0.736094
  O      1.990012   -0.184234   -1.901370
  C     -0.381134   -1.446542   -1.085155
  C     -1.132612   -2.095682    0.085295
  C     -2.288064   -2.992114   -0.379467
  C     -3.034082   -3.672493    0.775441
  C     -4.174604   -4.606936    0.339010
  C     -5.336793   -3.901468   -0.370317
  C      0.230558    1.344926   -0.362340
  C     -0.835364    1.419134    0.736348
  C     -1.376679    2.841373    0.971284
  C     -2.011171    3.508425   -0.260107
  C     -3.161416    2.715322   -0.895543
  C     -3.832191    3.452182   -2.058718
  H      7.864463    1.003020    1.096426
  H      8.067504    1.063780   -0.681208
  H      7.485564    2.505988    0.205824
  H      5.955502   -0.178881   -0.108763
  H      5.564827    1.311158   -0.979410
  H      5.133925    2.474727    1.247359
  H      5.424342    0.938241    2.086336
  H      2.972564    1.450877    1.752146
  H      3.217827    1.451244   -0.017895
  H      3.798645   -0.933544   -0.025273
  H      3.772619   -1.004804    1.759890
  H      1.716093   -1.997366    0.825301
  H      1.261947   -0.515894    1.705460
  H      0.086990   -2.223158   -1.728609
  H     -1.081330   -0.889589   -1.746474
  H     -0.426270   -2.699269    0.695794
  H     -1.531357   -1.318327    0.771454
  H     -1.893564   -3.768188   -1.074344
  H     -2.995691   -2.381121   -0.982173
  H     -3.440945   -2.890846    1.457867
  H     -2.302756   -4.250790    1.382925
  H     -3.760760   -5.400493   -0.323394
  H     -4.562792   -5.137302    1.235646
  H     -5.019843   -3.431430   -1.324083
  H     -6.153856   -4.611382   -0.611770
  H     -5.768016   -3.100093    0.266818
  H      1.069804    2.039432   -0.145374
  H     -0.176413    1.661592   -1.346981
  H     -0.417266    1.035608    1.692079
  H     -1.681388    0.744627    0.486306
  H     -2.128433    2.799652    1.790685
  H     -0.551161    3.485829    1.346554
  H     -1.230917    3.699292   -1.031100
  H     -2.383278    4.514720    0.034085
  H     -3.917412    2.476656   -0.113248
  H     -2.783888    1.732369   -1.255456
  H     -3.103645    3.673153   -2.867006
  H     -4.654813    2.856480   -2.503951
  H     -4.260981    4.421575   -1.727945

 Multiplicity           Mult            ....    1
 Number of Electrons    NEL             ....  170
 Basis Dimension        Dim             ....  479

ORBITAL ENERGIES
----------------

  NO   OCC          E(Eh)            E(eV)
   0   2.0000     -76.399743     -2078.9427
   1   2.0000     -18.702646      -508.9249
   2   2.0000      -9.925678      -270.0914
   3   2.0000      -9.925294      -270.0810
   4   2.0000      -9.920236      -269.9433
   5   2.0000      -9.919524      -269.9240
   6   2.0000      -9.918449      -269.8947
   7   2.0000      -9.918175      -269.8873
   8   2.0000      -9.916976      -269.8546
   9   2.0000      -9.916118      -269.8313
  10   2.0000      -9.915635      -269.8182
  11   2.0000      -9.915291      -269.8088
  12   2.0000      -9.914151      -269.7778
  13   2.0000      -9.912211      -269.7250
  14   2.0000      -9.909719      -269.6572
  15   2.0000      -9.909686      -269.6563
  16   2.0000      -9.905630      -269.5459
  17   2.0000      -9.904568      -269.5170
  18   2.0000      -9.901921      -269.4450
  19   2.0000      -9.899870      -269.3891
  20   2.0000      -6.359104      -173.0400
  21   2.0000      -4.580276      -124.6356
  22   2.0000      -4.580228      -124.6343
  23   2.0000      -4.580063      -124.6299
  24   2.0000      -0.836379       -22.7590
  25   2.0000      -0.739448       -20.1214
  26   2.0000      -0.734756       -19.9937
  27   2.0000      -0.725174       -19.7330
  28   2.0000      -0.704934       -19.1822
  29   2.0000      -0.694599       -18.9010
  30   2.0000      -0.688085       -18.7237
  31   2.0000      -0.654136       -17.8000
  32   2.0000      -0.638734       -17.3808
  33   2.0000      -0.635038       -17.2803
  34   2.0000      -0.595807       -16.2127
  35   2.0000      -0.581909       -15.8346
  36   2.0000      -0.569889       -15.5075
  37   2.0000      -0.545051       -14.8316
  38   2.0000      -0.535710       -14.5774
  39   2.0000      -0.531546       -14.4641
  40   2.0000      -0.508251       -13.8302
  41   2.0000      -0.501090       -13.6354
  42   2.0000      -0.495880       -13.4936
  43   2.0000      -0.465711       -12.6726
  44   2.0000      -0.438293       -11.9266
  45   2.0000      -0.431043       -11.7293
  46   2.0000      -0.423031       -11.5113
  47   2.0000      -0.416457       -11.3324
  48   2.0000      -0.408885       -11.1263
  49   2.0000      -0.404901       -11.0179
  50   2.0000      -0.397345       -10.8123
  51   2.0000      -0.394464       -10.7339
  52   2.0000      -0.389104       -10.5881
  53   2.0000      -0.385260       -10.4835
  54   2.0000      -0.374785       -10.1984
  55   2.0000      -0.372277       -10.1302
  56   2.0000      -0.371798       -10.1171
  57   2.0000      -0.359932        -9.7942
  58   2.0000      -0.357641        -9.7319
  59   2.0000      -0.354069        -9.6347
  60   2.0000      -0.345169        -9.3925
  61   2.0000      -0.343874        -9.3573
  62   2.0000      -0.339242        -9.2312
  63   2.0000      -0.327877        -8.9220
  64   2.0000      -0.324903        -8.8411
  65   2.0000      -0.321380        -8.7452
  66   2.0000      -0.317655        -8.6438
  67   2.0000      -0.313006        -8.5173
  68   2.0000      -0.310195        -8.4408
  69   2.0000      -0.306850        -8.3498
  70   2.0000      -0.302101        -8.2206
  71   2.0000      -0.300425        -8.1750
  72   2.0000      -0.292744        -7.9660
  73   2.0000      -0.287898        -7.8341
  74   2.0000      -0.287220        -7.8156
  75   2.0000      -0.286863        -7.8059
  76   2.0000      -0.283916        -7.7257
  77   2.0000      -0.283840        -7.7237
  78   2.0000      -0.278817        -7.5870
  79   2.0000      -0.278216        -7.5706
  80   2.0000      -0.273440        -7.4407
  81   2.0000      -0.271385        -7.3848
  82   2.0000      -0.267387        -7.2760
  83   2.0000      -0.203717        -5.5434
  84   2.0000      -0.202258        -5.5037
  85   0.0000       0.010268         0.2794
  86   0.0000       0.024687         0.6718
  87   0.0000       0.031733         0.8635
  88   0.0000       0.034306         0.9335
  89   0.0000       0.040001         1.0885

MULLIKEN ATOMIC CHARGES
-----------------------
   0 C :   -0.042064
   1 C :   -0.079690
   2 C :   -0.021316
   3 C :   -0.047662
   4 C :   -0.013504
   5 C :   -0.152422
   6 P :    0.456391
   7 O :   -0.470438
   8 C :   -0.144992
   9 C :   -0.017366
  10 C :   -0.045864
  11 C :   -0.025329
  12 C :   -0.031706
  13 C :   -0.069906
  14 C :   -0.152411
  15 C :   -0.053658
  16 C :    0.007402
  17 C :   -0.050906
  18 C :   -0.079471
  19 C :   -0.042354
  20 H :    0.022012
  21 H :    0.029336
  22 H :    0.023536
  23 H :    0.027686
  24 H :    0.031863
  25 H :    0.009420
  26 H :    0.005836
  27 H :    0.006375
  28 H :    0.049021
  29 H :    0.047873
  30 H :    0.013749
  31 H :    0.053882
  32 H :    0.039628
  33 H :    0.061692
  34 H :    0.049707
  35 H :    0.018802
  36 H :    0.016601
  37 H :    0.014995
  38 H :    0.017395
  39 H :    0.011078
  40 H :    0.013651
  41 H :    0.018661
  42 H :    0.019867
  43 H :    0.034706
  44 H :    0.031983
  45 H :    0.026345
  46 H :    0.047690
  47 H :    0.063718
  48 H :    0.024727
  49 H :    0.043015
  50 H :    0.014858
  51 H :    0.017879
  52 H :    0.022185
  53 H :    0.016749
  54 H :    0.018937
  55 H :    0.024649
  56 H :    0.029389
  57 H :    0.029957
  58 H :    0.027811
Sum of atomic charges:   -0.0000000

LOEWDIN ATOMIC CHARGES
----------------------
   0 C :   -0.074758
   1 C :   -0.052330
   2 C :   -0.045411
   3 C :   -0.053230
   4 C :   -0.048762
   5 C :   -0.196464
   6 P :    0.867492
   7 O :   -0.510499
   8 C :   -0.196492
   9 C :   -0.054913
  10 C :   -0.045466
  11 C :   -0.047581
  12 C :   -0.050776
  13 C :   -0.077063
  14 C :   -0.195391
  15 C :   -0.057908
  16 C :   -0.042980
  17 C :   -0.050004
  18 C :   -0.054798
  19 C :   -0.072937
  20 H :    0.025138
  21 H :    0.028860
  22 H :    0.025155
  23 H :    0.025465
  24 H :    0.030778
  25 H :    0.024397
  26 H :    0.020439
  27 H :    0.019749
  28 H :    0.024763
  29 H :    0.032486
  30 H :    0.024955
  31 H :    0.034838
  32 H :    0.026693
  33 H :    0.041266
  34 H :    0.034440
  35 H :    0.024789
  36 H :    0.023020
  37 H :    0.025803
  38 H :    0.023552
  39 H :    0.022692
  40 H :    0.025535
  41 H :    0.025489
  42 H :    0.027775
  43 H :    0.025521
  44 H :    0.030621
  45 H :    0.026703
  46 H :    0.036219
  47 H :    0.036965
  48 H :    0.025245
  49 H :    0.023557
  50 H :    0.026702
  51 H :    0.027363
  52 H :    0.023849
  53 H :    0.027845
  54 H :    0.024759
  55 H :    0.022002
  56 H :    0.028480
  57 H :    0.029249
  58 H :    0.027117

  Mayer bond orders larger than 0.100000
B(  0-C ,  1-C ) :   1.1115 B(  0-C , 20-H ) :   0.9650 B(  0-C , 21-H ) :   0.9627
B(  0-C , 22-H ) :   0.9657 B(  1-C ,  2-C ) :   1.0867 B(  1-C , 23-H ) :   0.9372
B(  1-C , 24-H ) :   0.9413 B(  2-C ,  3-C ) :   1.1000 B(  2-C , 25-H ) :   0.9336
B(  2-C , 26-H ) :   0.9323 B(  3-C ,  4-C ) :   1.0854 B(  3-C , 27-H ) :   0.9298
B(  3-C , 28-H ) :   0.9112 B(  4-C ,  5-C ) :   1.0675 B(  4-C , 29-H ) :   0.9217
B(  4-C , 30-H ) :   0.9313 B(  5-C ,  6-P ) :   0.9160 B(  5-C , 31-H ) :   0.9190
B(  5-C , 32-H ) :   0.9110 B(  6-P ,  7-O ) :   1.8664 B(  6-P ,  8-C ) :   0.9095
B(  6-P , 14-C ) :   0.9264 B(  8-C ,  9-C ) :   1.0435 B(  8-C , 33-H ) :   0.9160
B(  8-C , 34-H ) :   0.9251 B(  9-C , 10-C ) :   1.0820 B(  9-C , 35-H ) :   0.9223
B(  9-C , 36-H ) :   0.9284 B( 10-C , 11-C ) :   1.0827 B( 10-C , 37-H ) :   0.9362
B( 10-C , 38-H ) :   0.9325 B( 11-C , 12-C ) :   1.0938 B( 11-C , 39-H ) :   0.9337
B( 11-C , 40-H ) :   0.9311 B( 12-C , 13-C ) :   1.1104 B( 12-C , 41-H ) :   0.9374
B( 12-C , 42-H ) :   0.9363 B( 13-C , 43-H ) :   0.9654 B( 13-C , 44-H ) :   0.9615
B( 13-C , 45-H ) :   0.9669 B( 14-C , 15-C ) :   1.0313 B( 14-C , 46-H ) :   0.9235
B( 14-C , 47-H ) :   0.9078 B( 15-C , 16-C ) :   1.0884 B( 15-C , 48-H ) :   0.9286
B( 15-C , 49-H ) :   0.9179 B( 16-C , 17-C ) :   1.0913 B( 16-C , 50-H ) :   0.9289
B( 16-C , 51-H ) :   0.9308 B( 17-C , 18-C ) :   1.0868 B( 17-C , 52-H ) :   0.9328
B( 17-C , 53-H ) :   0.9319 B( 18-C , 19-C ) :   1.1131 B( 18-C , 54-H ) :   0.9399
B( 18-C , 55-H ) :   0.9302 B( 19-C , 56-H ) :   0.9653 B( 19-C , 57-H ) :   0.9623
B( 19-C , 58-H ) :   0.9662

Dispersion correction           -0.096632457
FINAL SINGLE POINT ENERGY     -1125.457043809613

DIPOLE MOMENT
-------------

Method             : SCF
Type of density    : Electron Density
Multiplicity       :   1
Irrep              :   0
Energy             : -1125.3604113529802362 Eh
Relativity type    :
Basis              : AO
                                X                 Y                 Z
Electronic contribution:      9.310078481      -2.451260601      -4.892796172
Nuclear contribution   :    -10.434665613       2.333969824       5.956791738
                        -----------------------------------------
Total Dipole Moment    :     -1.124587132      -0.117290778       1.063995566
                        -----------------------------------------
Magnitude (a.u.)       :      1.552591353
Magnitude (Debye)      :      3.946373595

Rotational constants in cm-1:             0.009790             0.004161             0.003199
Rotational constants in MHz :           293.510218           124.747261            95.895082

                             ****ORCA TERMINATED NORMALLY****
TOTAL RUN TIME: 0 days 0 hours 4 minutes 40 seconds 525 msec
