                         Program Version 6.0.0  -   RELEASE   -
|  1> ! RIJCOSX M062X def2-TZVP D3ZERO NormalSCF
|  2> %pal
|  3> nprocs 6
|  4> end
|  5>
|  6> * xyz 0 1
|  7>   C           0.46276708092715      5.63976510026080      0.71667283712385
|  8>   C           0.94828123525027      4.96806608029627     -0.57331839773273
|  9>   C           0.88341538223616      3.43193737599588     -0.55698042604696
| 10>   C          -0.53349720632110      2.85141773541810     -0.43218767432896
| 11>   C          -0.58735777320627      1.31496850126529     -0.50263549072619
| 12>   C          -0.28838551446193      0.75519439257068     -1.90108132822908
| 13>   P          -0.09286902457054     -1.10520522446019     -2.15291522262777
| 14>   C           1.67627325367118     -1.39439616981090     -1.58553631928266
| 15>   C           2.18066738163918     -0.80642108307462     -0.26252430117726
| 16>   C           3.62878824568676     -1.19733083093121      0.06363634869457
| 17>   C           4.13695443133328     -0.58547916865587      1.37601562579589
| 18>   C           5.57550559043339     -0.97276885106867      1.75640366733800
| 19>   C           6.64741076218862     -0.46095758013231      0.78683462330493
| 20>   C          -1.05055347044785     -1.81409910348271     -0.70435569321602
| 21>   C          -2.56846340441916     -1.73860581875473     -0.91732593321399
| 22>   C          -3.37682777260225     -2.38977913358197      0.21187928970527
| 23>   C          -4.89417204381308     -2.30797261297722      0.00976874586536
| 24>   C          -5.70693204734350     -2.96812611836320      1.13091813733714
| 25>   C          -7.22162622136350     -2.87572190840457      0.92231683295809
| 26>   H          -0.61017914573333      5.43689696579549      0.91297133997929
| 27>   H           1.03453618493150      5.27744991631719      1.59760724201179
| 28>   H           0.58450100691783      6.74122355917581      0.67006094790432
| 29>   H           0.35362001706844      5.34591326074644     -1.43566798205256
| 30>   H           1.99698359716160      5.27872631942998     -0.77352999821172
| 31>   H           1.35942228757052      3.04776599281426     -1.48566553982040
| 32>   H           1.50658469844661      3.04537813554614      0.28253322259324
| 33>   H          -0.98191857183311      3.17989085663652      0.53008778825608
| 34>   H          -1.18002475590897      3.28208641624455     -1.23134520424037
| 35>   H           0.11977849177612      0.89825823208929      0.24426711030822
| 36>   H          -1.59493896417148      0.97300043235695     -0.18437848734929
| 37>   H          -1.08799952867623      1.08025405320148     -2.60204909902630
| 38>   H           0.64912573898081      1.19063462729913     -2.31232248900387
| 39>   H           1.79668151542234     -2.50155664785059     -1.58267714755697
| 40>   H           2.31501429961649     -1.03747071311865     -2.42430624391553
| 41>   H           2.11349037426602      0.30234323842102     -0.29700164249896
| 42>   H           1.52039957954175     -1.12567762861394      0.57396193829243
| 43>   H           4.28303726962316     -0.88726753567318     -0.78118026920123
| 44>   H           3.71130838419883     -2.30724229376237      0.11632900685395
| 45>   H           3.45060558688325     -0.88590476719440      2.19899955152679
| 46>   H           4.06090365007075      0.52477880357851      1.31311577009758
| 47>   H           5.64503396126696     -2.08120047863470      1.83692809663805
| 48>   H           5.79103927033233     -0.58404070844293      2.77560407210654
| 49>   H           7.66738143255490     -0.72060052762017      1.13677286663536
| 50>   H           6.53040568671342     -0.89168455423935     -0.22890299761581
| 51>   H           6.60080461794400      0.64428174716837      0.68459649085204
| 52>   H          -0.73522034724092     -2.87827830496245     -0.62556857726297
| 53>   H          -0.76950666582703     -1.33189686953563      0.25682857558462
| 54>   H          -2.88066783687925     -0.67459724187620     -1.01984116374752
| 55>   H          -2.82747488500026     -2.21758045938143     -1.88783455068691
| 56>   H          -3.07296333845279     -3.45698732138028      0.31044784910343
| 57>   H          -3.10635074223203     -1.91158731719646      1.18105277981309
| 58>   H          -5.16146924235683     -2.77773944289817     -0.96446153630410
| 59>   H          -5.19560260398076     -1.23924631360624     -0.08286728438000
| 60>   H          -5.40503370488356     -4.03607806308613      1.21900540428223
| 61>   H          -5.43334064982847     -2.50010113053580      2.10341235772528
| 62>   H          -7.52895139224928     -3.36774162506733     -0.02468683992468
| 63>   H          -7.55655492364142     -1.81835322154401      0.86640531512692
| 64>   H          -7.78183723720873     -3.36053597270958      1.74771200556647
| 65> **                         ****END OF INPUT****

CARTESIAN COORDINATES (ANGSTROEM)
---------------------------------
  C      0.462767    5.639765    0.716673
  C      0.948281    4.968066   -0.573318
  C      0.883415    3.431937   -0.556980
  C     -0.533497    2.851418   -0.432188
  C     -0.587358    1.314969   -0.502635
  C     -0.288386    0.755194   -1.901081
  P     -0.092869   -1.105205   -2.152915
  C      1.676273   -1.394396   -1.585536
  C      2.180667   -0.806421   -0.262524
  C      3.628788   -1.197331    0.063636
  C      4.136954   -0.585479    1.376016
  C      5.575506   -0.972769    1.756404
  C      6.647411   -0.460958    0.786835
  C     -1.050553   -1.814099   -0.704356
  C     -2.568463   -1.738606   -0.917326
  C     -3.376828   -2.389779    0.211879
  C     -4.894172   -2.307973    0.009769
  C     -5.706932   -2.968126    1.130918
  C     -7.221626   -2.875722    0.922317
  H     -0.610179    5.436897    0.912971
  H      1.034536    5.277450    1.597607
  H      0.584501    6.741224    0.670061
  H      0.353620    5.345913   -1.435668
  H      1.996984    5.278726   -0.773530
  H      1.359422    3.047766   -1.485666
  H      1.506585    3.045378    0.282533
  H     -0.981919    3.179891    0.530088
  H     -1.180025    3.282086   -1.231345
  H      0.119778    0.898258    0.244267
  H     -1.594939    0.973000   -0.184378
  H     -1.088000    1.080254   -2.602049
  H      0.649126    1.190635   -2.312322
  H      1.796682   -2.501557   -1.582677
  H      2.315014   -1.037471   -2.424306
  H      2.113490    0.302343   -0.297002
  H      1.520400   -1.125678    0.573962
  H      4.283037   -0.887268   -0.781180
  H      3.711308   -2.307242    0.116329
  H      3.450606   -0.885905    2.199000
  H      4.060904    0.524779    1.313116
  H      5.645034   -2.081200    1.836928
  H      5.791039   -0.584041    2.775604
  H      7.667381   -0.720601    1.136773
  H      6.530406   -0.891685   -0.228903
  H      6.600805    0.644282    0.684596
  H     -0.735220   -2.878278   -0.625569
  H     -0.769507   -1.331897    0.256829
  H     -2.880668   -0.674597   -1.019841
  H     -2.827475   -2.217580   -1.887835
  H     -3.072963   -3.456987    0.310448
  H     -3.106351   -1.911587    1.181053
  H     -5.161469   -2.777739   -0.964462
  H     -5.195603   -1.239246   -0.082867
  H     -5.405034   -4.036078    1.219005
  H     -5.433341   -2.500101    2.103412
  H     -7.528951   -3.367742   -0.024687
  H     -7.556555   -1.818353    0.866405
  H     -7.781837   -3.360536    1.747712

 Total Charge           Charge          ....    0
 Multiplicity           Mult            ....    1
 Number of Electrons    NEL             ....  162
 Basis Dimension        Dim             ....  829

ORBITAL ENERGIES
----------------

  NO   OCC          E(Eh)            E(eV)
   0   2.0000     -78.009969     -2122.7592
   1   2.0000     -10.535911      -286.6967
   2   2.0000     -10.535620      -286.6888
   3   2.0000     -10.535315      -286.6805
   4   2.0000     -10.535126      -286.6753
   5   2.0000     -10.534460      -286.6572
   6   2.0000     -10.534274      -286.6522
   7   2.0000     -10.533983      -286.6443
   8   2.0000     -10.533586      -286.6335
   9   2.0000     -10.532867      -286.6139
  10   2.0000     -10.532656      -286.6081
  11   2.0000     -10.532514      -286.6043
  12   2.0000     -10.532482      -286.6034
  13   2.0000     -10.532193      -286.5955
  14   2.0000     -10.531785      -286.5844
  15   2.0000     -10.530736      -286.5559
  16   2.0000     -10.527139      -286.4580
  17   2.0000     -10.526911      -286.4518
  18   2.0000     -10.526277      -286.4346
  19   2.0000      -6.825778      -185.7389
  20   2.0000      -4.940323      -134.4330
  21   2.0000      -4.939910      -134.4218
  22   2.0000      -4.939819      -134.4193
  23   2.0000      -0.909679       -24.7536
  24   2.0000      -0.903656       -24.5897
  25   2.0000      -0.902857       -24.5680
  26   2.0000      -0.874370       -23.7928
  27   2.0000      -0.860195       -23.4071
  28   2.0000      -0.857569       -23.3356
  29   2.0000      -0.815139       -22.1810
  30   2.0000      -0.793319       -21.5873
  31   2.0000      -0.789220       -21.4758
  32   2.0000      -0.748265       -20.3613
  33   2.0000      -0.729496       -19.8506
  34   2.0000      -0.719563       -19.5803
  35   2.0000      -0.683290       -18.5933
  36   2.0000      -0.668266       -18.1844
  37   2.0000      -0.662202       -18.0194
  38   2.0000      -0.652669       -17.7600
  39   2.0000      -0.643548       -17.5118
  40   2.0000      -0.637732       -17.3536
  41   2.0000      -0.589773       -16.0485
  42   2.0000      -0.549648       -14.9567
  43   2.0000      -0.545811       -14.8523
  44   2.0000      -0.530561       -14.4373
  45   2.0000      -0.523968       -14.2579
  46   2.0000      -0.520319       -14.1586
  47   2.0000      -0.512374       -13.9424
  48   2.0000      -0.509174       -13.8553
  49   2.0000      -0.505751       -13.7622
  50   2.0000      -0.492419       -13.3994
  51   2.0000      -0.481394       -13.0994
  52   2.0000      -0.480624       -13.0785
  53   2.0000      -0.476367       -12.9626
  54   2.0000      -0.466467       -12.6932
  55   2.0000      -0.460444       -12.5293
  56   2.0000      -0.454907       -12.3787
  57   2.0000      -0.448556       -12.2058
  58   2.0000      -0.440496       -11.9865
  59   2.0000      -0.438312       -11.9271
  60   2.0000      -0.429799       -11.6954
  61   2.0000      -0.427508       -11.6331
  62   2.0000      -0.421535       -11.4705
  63   2.0000      -0.416551       -11.3349
  64   2.0000      -0.411864       -11.2074
  65   2.0000      -0.409398       -11.1403
  66   2.0000      -0.399534       -10.8719
  67   2.0000      -0.393239       -10.7006
  68   2.0000      -0.389949       -10.6110
  69   2.0000      -0.384590       -10.4652
  70   2.0000      -0.384293       -10.4571
  71   2.0000      -0.383211       -10.4277
  72   2.0000      -0.380696       -10.3593
  73   2.0000      -0.379999       -10.3403
  74   2.0000      -0.376203       -10.2370
  75   2.0000      -0.374052       -10.1785
  76   2.0000      -0.372962       -10.1488
  77   2.0000      -0.364805        -9.9269
  78   2.0000      -0.343490        -9.3468
  79   2.0000      -0.336526        -9.1573
  80   2.0000      -0.264176        -7.1886
  81   0.0000       0.052947         1.4408
  82   0.0000       0.056496         1.5373
  83   0.0000       0.066192         1.8012
  84   0.0000       0.069104         1.8804
  85   0.0000       0.071039         1.9331

MULLIKEN ATOMIC CHARGES
-----------------------
   0 C :   -0.443372
   1 C :   -0.243347
   2 C :   -0.293690
   3 C :   -0.265371
   4 C :   -0.333600
   5 C :   -0.433323
   6 P :    0.224080
   7 C :   -0.413504
   8 C :   -0.309978
   9 C :   -0.283000
  10 C :   -0.267343
  11 C :   -0.241518
  12 C :   -0.443922
  13 C :   -0.413766
  14 C :   -0.322297
  15 C :   -0.256085
  16 C :   -0.279281
  17 C :   -0.238650
  18 C :   -0.427685
  19 H :    0.142286
  20 H :    0.136885
  21 H :    0.143455
  22 H :    0.137037
  23 H :    0.136200
  24 H :    0.138477
  25 H :    0.145097
  26 H :    0.146126
  27 H :    0.146280
  28 H :    0.172332
  29 H :    0.150305
  30 H :    0.180209
  31 H :    0.165500
  32 H :    0.167162
  33 H :    0.171204
  34 H :    0.134314
  35 H :    0.159624
  36 H :    0.141726
  37 H :    0.140228
  38 H :    0.137248
  39 H :    0.143186
  40 H :    0.134934
  41 H :    0.135852
  42 H :    0.143400
  43 H :    0.141122
  44 H :    0.137086
  45 H :    0.165344
  46 H :    0.161295
  47 H :    0.147201
  48 H :    0.160809
  49 H :    0.139385
  50 H :    0.138414
  51 H :    0.136797
  52 H :    0.135335
  53 H :    0.130154
  54 H :    0.129551
  55 H :    0.136777
  56 H :    0.135803
  57 H :    0.141512
Sum of atomic charges:   -0.0000000

LOEWDIN ATOMIC CHARGES
----------------------
   0 C :   -0.327114
   1 C :   -0.304839
   2 C :   -0.283783
   3 C :   -0.274510
   4 C :   -0.304523
   5 C :   -0.429251
   6 P :    0.548805
   7 C :   -0.434197
   8 C :   -0.306111
   9 C :   -0.276679
  10 C :   -0.281384
  11 C :   -0.305463
  12 C :   -0.327298
  13 C :   -0.423877
  14 C :   -0.307449
  15 C :   -0.279121
  16 C :   -0.280453
  17 C :   -0.305595
  18 C :   -0.326525
  19 H :    0.120068
  20 H :    0.122237
  21 H :    0.122208
  22 H :    0.137545
  23 H :    0.137316
  24 H :    0.137113
  25 H :    0.138051
  26 H :    0.139267
  27 H :    0.140760
  28 H :    0.138065
  29 H :    0.138427
  30 H :    0.136951
  31 H :    0.137608
  32 H :    0.138978
  33 H :    0.137828
  34 H :    0.138924
  35 H :    0.137741
  36 H :    0.138983
  37 H :    0.139759
  38 H :    0.139610
  39 H :    0.138658
  40 H :    0.137079
  41 H :    0.137280
  42 H :    0.122156
  43 H :    0.120024
  44 H :    0.122254
  45 H :    0.136813
  46 H :    0.126245
  47 H :    0.136431
  48 H :    0.140739
  49 H :    0.139593
  50 H :    0.138862
  51 H :    0.139496
  52 H :    0.138650
  53 H :    0.136610
  54 H :    0.136401
  55 H :    0.121718
  56 H :    0.121472
  57 H :    0.121445

  Mayer bond orders larger than 0.100000
B(  0-C ,  1-C ) :   0.9291 B(  0-C , 19-H ) :   0.9747 B(  0-C , 20-H ) :   0.9697
B(  0-C , 21-H ) :   0.9768 B(  1-C ,  2-C ) :   0.9482 B(  1-C , 22-H ) :   0.9798
B(  1-C , 23-H ) :   0.9838 B(  2-C ,  3-C ) :   0.8852 B(  2-C , 24-H ) :   0.9745
B(  2-C , 25-H ) :   0.9806 B(  3-C ,  4-C ) :   0.9528 B(  3-C , 26-H ) :   0.9785
B(  3-C , 27-H ) :   0.9731 B(  4-C ,  5-C ) :   0.8536 B(  4-C , 28-H ) :   0.9821
B(  4-C , 29-H ) :   0.9739 B(  5-C ,  6-P ) :   0.9658 B(  5-C , 30-H ) :   0.9561
B(  5-C , 31-H ) :   0.9625 B(  6-P ,  7-C ) :   0.9725 B(  6-P , 13-C ) :   0.9742
B(  7-C ,  8-C ) :   0.8653 B(  7-C , 32-H ) :   0.9688 B(  7-C , 33-H ) :   0.9663
B(  8-C ,  9-C ) :   0.9593 B(  8-C , 34-H ) :   0.9645 B(  8-C , 35-H ) :   0.9727
B(  9-C , 10-C ) :   0.9030 B(  9-C , 36-H ) :   0.9780 B(  9-C , 37-H ) :   0.9738
B( 10-C , 11-C ) :   0.9419 B( 10-C , 38-H ) :   0.9774 B( 10-C , 39-H ) :   0.9868
B( 11-C , 12-C ) :   0.9289 B( 11-C , 40-H ) :   0.9781 B( 11-C , 41-H ) :   0.9838
B( 12-C , 42-H ) :   0.9766 B( 12-C , 43-H ) :   0.9744 B( 12-C , 44-H ) :   0.9699
B( 13-C , 14-C ) :   0.9187 B( 13-C , 45-H ) :   0.9506 B( 13-C , 46-H ) :   0.9594
B( 14-C , 15-C ) :   0.9002 B( 14-C , 47-H ) :   0.9941 B( 14-C , 48-H ) :   0.9727
B( 15-C , 16-C ) :   0.9336 B( 15-C , 49-H ) :   0.9795 B( 15-C , 50-H ) :   0.9803
B( 16-C , 17-C ) :   0.9394 B( 16-C , 51-H ) :   0.9719 B( 16-C , 52-H ) :   0.9739
B( 17-C , 18-C ) :   0.9524 B( 17-C , 53-H ) :   0.9746 B( 17-C , 54-H ) :   0.9750
B( 18-C , 55-H ) :   0.9740 B( 18-C , 56-H ) :   0.9738 B( 18-C , 57-H ) :   0.9810

Dispersion correction           -0.003416832
FINAL SINGLE POINT ENERGY     -1050.653721394836

DIPOLE MOMENT
-------------

Method             : SCF
Type of density    : Electron Density
Multiplicity       :   1
Irrep              :   0
Energy             : -1050.6503045628210202 Eh
Relativity type    :
Basis              : AO
                                X                 Y                 Z
Electronic contribution:     -0.574389918      -7.230874532     -12.544227942
Nuclear contribution   :      0.719483995       7.421621266      13.047450927
                        -----------------------------------------
Total Dipole Moment    :      0.145094078       0.190746734       0.503222985
                        -----------------------------------------
Magnitude (a.u.)       :      0.557377772
Magnitude (Debye)      :      1.416741707

Rotational constants in cm-1:             0.008888             0.003992             0.003158
Rotational constants in MHz :           266.443144           119.664777            94.661086

                             ****ORCA TERMINATED NORMALLY****
TOTAL RUN TIME: 0 days 0 hours 2 minutes 13 seconds 121 msec
