                         Program Version 6.0.0  -   RELEASE   -
|  1> ! RIJONX B3LYP def2-SVP D3BJ TIGHTSCF Opt
|  2> %pal
|  3> nprocs 6
|  4> end
|  5>
|  6> * xyz 0 1
|  7> C     -3.276795   -2.804494    0.137050
|  8> C     -2.559058   -3.016061   -1.035766
|  9> C     -1.603605   -2.083073   -1.448333
| 10> C     -1.344687   -0.923152   -0.695243
| 11> C     -2.082793   -0.728145    0.481428
| 12> C     -3.039520   -1.661283    0.894744
| 13> P     -0.079270    0.231635   -1.317060
| 14> C     -0.289797    1.720163   -0.286615
| 15> C     -1.257197    2.661742   -0.681843
| 16> C     -1.476158    3.827983    0.056728
| 17> C     -0.729325    4.075452    1.204168
| 18> C      0.234401    3.157647    1.611900
| 19> C      0.452701    1.990450    0.872528
| 20> C      1.495972   -0.482656   -0.741067
| 21> C      2.689244    0.050355   -1.263518
| 22> C      3.937120   -0.445009   -0.872072
| 23> C      4.006844   -1.485490    0.048074
| 24> C      2.842338   -2.032408    0.577826
| 25> C      1.595403   -1.533480    0.183820
| 26> Br     5.689846   -2.158381    0.581990
| 27> H     -4.021322   -3.527545    0.459271
| 28> H     -2.741075   -3.905614   -1.633132
| 29> H     -1.056913   -2.274545   -2.370347
| 30> H     -1.928469    0.148729    1.104866
| 31> H     -3.599530   -1.490177    1.810671
| 32> H     -1.857274    2.493210   -1.574672
| 33> H     -2.230021    4.540772   -0.267151
| 34> H     -0.897157    4.981982    1.779494
| 35> H      0.820537    3.346837    2.507701
| 36> H      1.210439    1.298427    1.230291
| 37> H      2.658301    0.866444   -1.984227
| 38> H      4.840784   -0.011328   -1.291697
| 39> H      2.887859   -2.846012    1.297040
| 40> H      0.708176   -1.982977    0.623152
| 41> **                         ****END OF INPUT****
 Total Charge           Charge          ....    0
 Multiplicity           Mult            ....    1
 Number of Electrons    NEL             ....  172
Dispersion correction           -0.089695178
FINAL SINGLE POINT ENERGY     -3608.424221935568
Dispersion correction             ... done (  0.1 sec)
Dispersion correction           -0.090453973
FINAL SINGLE POINT ENERGY     -3608.426406233982
Dispersion correction             ... done (  0.1 sec)
Dispersion correction           -0.090613995
FINAL SINGLE POINT ENERGY     -3608.426936758349
Dispersion correction             ... done (  0.1 sec)
FINAL SINGLE POINT ENERGY     -3608.427053316660
Dispersion correction             ... done (  0.1 sec)
Dispersion correction           -0.090490571
FINAL SINGLE POINT ENERGY     -3608.427070436216
Dispersion correction             ... done (  0.1 sec)
Dispersion correction           -0.090516555
FINAL SINGLE POINT ENERGY     -3608.427074008067
Dispersion correction             ... done (  0.1 sec)
                    ***********************HURRAY********************

CARTESIAN COORDINATES (ANGSTROEM)
---------------------------------
  C     -3.207849   -2.791596    0.188155
  C     -2.538776   -3.007635   -1.021147
  C     -1.619487   -2.066608   -1.488779
  C     -1.339475   -0.905916   -0.746451
  C     -2.017976   -0.696674    0.464320
  C     -2.948068   -1.633339    0.925823
  P     -0.085709    0.258334   -1.445897
  C     -0.289839    1.725594   -0.340059
  C     -1.269217    2.666740   -0.702782
  C     -1.501599    3.794674    0.086613
  C     -0.743040    4.008653    1.242196
  C      0.242987    3.086543    1.603790
  C      0.467412    1.950300    0.820415
  C      1.481701   -0.470306   -0.789109
  C      2.690605    0.045472   -1.287476
  C      3.921726   -0.434316   -0.839171
  C      3.946552   -1.461010    0.109490
  C      2.760581   -2.002392    0.610023
  C      1.535348   -1.502013    0.160471
  Br     5.621599   -2.134551    0.721311
  H     -3.933954   -3.523145    0.551750
  H     -2.740498   -3.908233   -1.606917
  H     -1.107867   -2.233666   -2.441334
  H     -1.816434    0.200998    1.052003
  H     -3.469944   -1.457038    1.870145
  H     -1.855801    2.510035   -1.612870
  H     -2.270896    4.514025   -0.205986
  H     -0.917476    4.895417    1.856851
  H      0.841286    3.249060    2.504205
  H      1.234817    1.232791    1.117070
  H      2.670697    0.840423   -2.038732
  H      4.854489   -0.022672   -1.228178
  H      2.792761   -2.805275    1.348572
  H      0.611342   -1.922677    0.561686

 Multiplicity           Mult            ....    1
 Number of Electrons    NEL             ....  172
 Basis Dimension        Dim             ....  372

ORBITAL ENERGIES
----------------

  NO   OCC          E(Eh)            E(eV)
   0   2.0000    -482.785599    -13137.2640
   1   2.0000     -77.056244     -2096.8070
   2   2.0000     -62.469278     -1699.8755
   3   2.0000     -56.301100     -1532.0308
   4   2.0000     -56.298714     -1531.9659
   5   2.0000     -56.298696     -1531.9654
   6   2.0000     -10.242565      -278.7144
   7   2.0000     -10.203912      -277.6626
   8   2.0000     -10.203434      -277.6496
   9   2.0000     -10.202937      -277.6360
  10   2.0000     -10.201009      -277.5836
  11   2.0000     -10.199846      -277.5519
  12   2.0000     -10.195890      -277.4443
  13   2.0000     -10.195836      -277.4428
  14   2.0000     -10.195302      -277.4283
  15   2.0000     -10.195110      -277.4230
  16   2.0000     -10.194833      -277.4155
  17   2.0000     -10.194682      -277.4114
  18   2.0000     -10.194157      -277.3971
  19   2.0000     -10.194000      -277.3928
  20   2.0000     -10.193887      -277.3898
  21   2.0000     -10.193831      -277.3882
  22   2.0000     -10.193477      -277.3786
  23   2.0000     -10.193366      -277.3756
  24   2.0000      -8.687726      -236.4050
  25   2.0000      -6.551949      -178.2876
  26   2.0000      -6.521458      -177.4579
  27   2.0000      -6.508282      -177.0994
  28   2.0000      -6.507917      -177.0894
  29   2.0000      -4.717403      -128.3671
  30   2.0000      -4.717352      -128.3657
  31   2.0000      -4.714467      -128.2872
  32   2.0000      -2.635589       -71.7180
  33   2.0000      -2.631987       -71.6200
  34   2.0000      -2.631715       -71.6126
  35   2.0000      -2.621188       -71.3262
  36   2.0000      -2.621183       -71.3260
  37   2.0000      -0.869370       -23.6568
  38   2.0000      -0.852839       -23.2069
  39   2.0000      -0.847542       -23.0628
  40   2.0000      -0.803995       -21.8778
  41   2.0000      -0.761997       -20.7350
  42   2.0000      -0.751090       -20.4382
  43   2.0000      -0.741315       -20.1722
  44   2.0000      -0.740662       -20.1544
  45   2.0000      -0.736164       -20.0321
  46   2.0000      -0.721573       -19.6350
  47   2.0000      -0.643637       -17.5143
  48   2.0000      -0.615656       -16.7529
  49   2.0000      -0.603525       -16.4227
  50   2.0000      -0.602831       -16.4039
  51   2.0000      -0.592657       -16.1270
  52   2.0000      -0.590189       -16.0599
  53   2.0000      -0.559175       -15.2159
  54   2.0000      -0.518275       -14.1030
  55   2.0000      -0.514756       -14.0072
  56   2.0000      -0.487816       -13.2741
  57   2.0000      -0.473129       -12.8745
  58   2.0000      -0.458412       -12.4740
  59   2.0000      -0.457780       -12.4568
  60   2.0000      -0.453878       -12.3507
  61   2.0000      -0.449806       -12.2398
  62   2.0000      -0.443196       -12.0600
  63   2.0000      -0.433616       -11.7993
  64   2.0000      -0.424601       -11.5540
  65   2.0000      -0.424022       -11.5382
  66   2.0000      -0.410743       -11.1769
  67   2.0000      -0.405956       -11.0466
  68   2.0000      -0.388242       -10.5646
  69   2.0000      -0.375526       -10.2186
  70   2.0000      -0.371637       -10.1128
  71   2.0000      -0.368155       -10.0180
  72   2.0000      -0.359867        -9.7925
  73   2.0000      -0.349499        -9.5104
  74   2.0000      -0.348520        -9.4837
  75   2.0000      -0.330905        -9.0044
  76   2.0000      -0.328611        -8.9420
  77   2.0000      -0.313845        -8.5402
  78   2.0000      -0.286070        -7.7844
  79   2.0000      -0.276814        -7.5325
  80   2.0000      -0.269437        -7.3318
  81   2.0000      -0.263524        -7.1709
  82   2.0000      -0.258974        -7.0471
  83   2.0000      -0.257804        -7.0152
  84   2.0000      -0.249817        -6.7979
  85   2.0000      -0.218703        -5.9512
  86   0.0000      -0.032829        -0.8933
  87   0.0000      -0.028561        -0.7772
  88   0.0000      -0.027864        -0.7582
  89   0.0000      -0.013399        -0.3646
  90   0.0000      -0.011072        -0.3013

MULLIKEN ATOMIC CHARGES
-----------------------
   0 C :    0.024000
   1 C :    0.020872
   2 C :    0.024808
   3 C :   -0.169474
   4 C :    0.017573
   5 C :    0.025420
   6 P :    0.366965
   7 C :   -0.166599
   8 C :    0.026132
   9 C :    0.021062
  10 C :    0.023901
  11 C :    0.025256
  12 C :    0.017980
  13 C :   -0.155602
  14 C :    0.021932
  15 C :    0.032152
  16 C :   -0.014327
  17 C :    0.038088
  18 C :    0.014518
  19 Br:   -0.049585
  20 H :   -0.013821
  21 H :   -0.013742
  22 H :   -0.014851
  23 H :   -0.000488
  24 H :   -0.016308
  25 H :   -0.014930
  26 H :   -0.013959
  27 H :   -0.013844
  28 H :   -0.015846
  29 H :   -0.002617
  30 H :   -0.008361
  31 H :   -0.010352
  32 H :   -0.012500
  33 H :    0.006546
Sum of atomic charges:   -0.0000000

LOEWDIN ATOMIC CHARGES
----------------------
   0 C :   -0.021739
   1 C :   -0.024620
   2 C :   -0.028928
   3 C :   -0.175167
   4 C :   -0.030296
   5 C :   -0.024575
   6 P :    0.516535
   7 C :   -0.174591
   8 C :   -0.028280
   9 C :   -0.024435
  10 C :   -0.021629
  11 C :   -0.024407
  12 C :   -0.030908
  13 C :   -0.174777
  14 C :   -0.020566
  15 C :   -0.036118
  16 C :   -0.112094
  17 C :   -0.036288
  18 C :   -0.022702
  19 Br:    0.091538
  20 H :    0.027665
  21 H :    0.028292
  22 H :    0.025125
  23 H :    0.029661
  24 H :    0.027778
  25 H :    0.025141
  26 H :    0.028215
  27 H :    0.027663
  28 H :    0.027973
  29 H :    0.028691
  30 H :    0.029034
  31 H :    0.032964
  32 H :    0.032515
  33 H :    0.033333

  Mayer bond orders larger than 0.100000
B(  0-C ,  1-C ) :   1.3759 B(  0-C ,  5-C ) :   1.3818 B(  0-C , 20-H ) :   0.9846
B(  1-C ,  2-C ) :   1.4053 B(  1-C , 21-H ) :   0.9850 B(  2-C ,  3-C ) :   1.3693
B(  2-C , 22-H ) :   0.9820 B(  3-C ,  4-C ) :   1.3853 B(  3-C ,  6-P ) :   0.9316
B(  4-C ,  5-C ) :   1.3835 B(  4-C , 23-H ) :   0.9797 B(  5-C , 24-H ) :   0.9840
B(  6-P ,  7-C ) :   0.9333 B(  6-P , 13-C ) :   0.9271 B(  7-C ,  8-C ) :   1.3707
B(  7-C , 12-C ) :   1.3839 B(  8-C ,  9-C ) :   1.4049 B(  8-C , 25-H ) :   0.9818
B(  9-C , 10-C ) :   1.3761 B(  9-C , 26-H ) :   0.9849 B( 10-C , 11-C ) :   1.3817
B( 10-C , 27-H ) :   0.9846 B( 11-C , 12-C ) :   1.3848 B( 11-C , 28-H ) :   0.9840
B( 12-C , 29-H ) :   0.9794 B( 13-C , 14-C ) :   1.3614 B( 13-C , 18-C ) :   1.3800
B( 14-C , 15-C ) :   1.4066 B( 14-C , 30-H ) :   0.9799 B( 15-C , 16-C ) :   1.3826
B( 15-C , 31-H ) :   0.9860 B( 16-C , 17-C ) :   1.3883 B( 16-C , 19-Br) :   0.9767
B( 17-C , 18-C ) :   1.3824 B( 17-C , 32-H ) :   0.9856 B( 18-C , 33-H ) :   0.9775

Dispersion correction           -0.090526700
FINAL SINGLE POINT ENERGY     -3608.427074651719

DIPOLE MOMENT
-------------

Method             : SCF
Type of density    : Electron Density
Multiplicity       :   1
Irrep              :   0
Energy             : -3608.3365479520848567 Eh
Relativity type    :
Basis              : AO
                                X                 Y                 Z
Electronic contribution:     60.070196558     -22.257982583       4.148994132
Nuclear contribution   :    -60.691028103      22.424205866      -3.806017379
                        -----------------------------------------
Total Dipole Moment    :     -0.620831546       0.166223284       0.342976754
                        -----------------------------------------
Magnitude (a.u.)       :      0.728488189
Magnitude (Debye)      :      1.851669822

Rotational constants in cm-1:             0.011522             0.004560             0.003644
Rotational constants in MHz :           345.411040           136.713984           109.238019

                             ****ORCA TERMINATED NORMALLY****
TOTAL RUN TIME: 0 days 0 hours 6 minutes 1 seconds 234 msec
