                         Program Version 6.0.0  -   RELEASE   -
|  1> ! RIJONX B3LYP def2-SVP D3BJ TIGHTSCF Opt
|  2> %pal
|  3> nprocs 6
|  4> end
|  5>
|  6> * xyz 0 1
|  7> C      5.212665    0.090662    0.749749
|  8> C      3.796917    0.046819    0.257950
|  9> C      2.840623   -0.732235    0.914540
| 10> C      1.525700   -0.799946    0.438592
| 11> C      1.135110   -0.097837   -0.709638
| 12> C      2.110359    0.667542   -1.372001
| 13> C      3.424602    0.736829   -0.897845
| 14> P     -0.548602   -0.122653   -1.406633
| 15> C     -1.382763   -1.469371   -0.504898
| 16> C     -1.206141   -2.783623   -0.974492
| 17> C     -1.813950   -3.868326   -0.336045
| 18> C     -2.612719   -3.658270    0.783552
| 19> C     -2.802792   -2.365491    1.263179
| 20> C     -2.193770   -1.280489    0.623944
| 21> C     -1.322076    1.392777   -0.751933
| 22> C     -2.551139    1.795979   -1.305101
| 23> C     -3.204572    2.946971   -0.855791
| 24> C     -2.638938    3.718648    0.154243
| 25> C     -1.421971    3.339325    0.713280
| 26> C     -0.768860    2.186993    0.263383
| 27> H      5.251780   -0.023792    1.838144
| 28> H      5.680808    1.050589    0.507632
| 29> H      5.794329   -0.713153    0.288150
| 30> H      3.108716   -1.295796    1.805608
| 31> H      0.818401   -1.412399    0.991807
| 32> H      1.854801    1.224467   -2.272085
| 33> H      4.152743    1.335312   -1.440586
| 34> H     -0.585060   -2.977118   -1.847641
| 35> H     -1.661853   -4.875097   -0.716072
| 36> H     -3.087184   -4.499797    1.281075
| 37> H     -3.426566   -2.195823    2.137118
| 38> H     -2.364657   -0.288654    1.034512
| 39> H     -3.017205    1.210171   -2.095794
| 40> H     -4.154154    3.237856   -1.297171
| 41> H     -3.144403    4.614514    0.504583
| 42> H     -0.975161    3.939284    1.501994
| 43> H      0.176982    1.925131    0.730689
| 44> **                         ****END OF INPUT****
 Total Charge           Charge          ....    0
 Multiplicity           Mult            ....    1
 Number of Electrons    NEL             ....  146
Dispersion correction           -0.090377743
FINAL SINGLE POINT ENERGY     -1074.552877197540
Dispersion correction             ... done (  0.1 sec)
Dispersion correction           -0.091048861
FINAL SINGLE POINT ENERGY     -1074.555374916256
Dispersion correction             ... done (  0.1 sec)
Dispersion correction           -0.091159481
FINAL SINGLE POINT ENERGY     -1074.555949905638
Dispersion correction             ... done (  0.1 sec)
FINAL SINGLE POINT ENERGY     -1074.556073225667
Dispersion correction             ... done (  0.1 sec)
Dispersion correction           -0.091059912
FINAL SINGLE POINT ENERGY     -1074.556090674399
Dispersion correction             ... done (  0.1 sec)
Dispersion correction           -0.091088501
FINAL SINGLE POINT ENERGY     -1074.556094707022
Dispersion correction             ... done (  0.1 sec)
                    ***********************HURRAY********************

CARTESIAN COORDINATES (ANGSTROEM)
---------------------------------
  C      5.162376    0.104837    0.804714
  C      3.755435    0.051490    0.266179
  C      2.756172   -0.683035    0.922124
  C      1.458486   -0.760572    0.411514
  C      1.119648   -0.103482   -0.781063
  C      2.120022    0.624579   -1.446697
  C      3.411268    0.708548   -0.925882
  P     -0.563895   -0.124636   -1.540415
  C     -1.382627   -1.463114   -0.561306
  C     -1.193892   -2.784960   -1.001697
  C     -1.765706   -3.855732   -0.312195
  C     -2.552666   -3.619179    0.819974
  C     -2.757983   -2.308134    1.258040
  C     -2.175115   -1.236179    0.574725
  C     -1.324474    1.386101   -0.792639
  C     -2.562205    1.804659   -1.311904
  C     -3.210242    2.927975   -0.794903
  C     -2.619495    3.663185    0.238303
  C     -1.382274    3.264291    0.751354
  C     -0.738870    2.131825    0.242175
  H      5.178955    0.012652    1.901626
  H      5.665200    1.044821    0.529897
  H      5.771736   -0.721947    0.398611
  H      2.996480   -1.201838    1.855045
  H      0.701347   -1.333363    0.950679
  H      1.880800    1.137360   -2.383163
  H      4.170205    1.289303   -1.458431
  H     -0.589152   -2.973611   -1.893724
  H     -1.604354   -4.877883   -0.664669
  H     -3.008334   -4.455475    1.356321
  H     -3.373600   -2.115878    2.140871
  H     -2.334974   -0.216394    0.929989
  H     -3.021761    1.239905   -2.128575
  H     -4.175225    3.236241   -1.205787
  H     -3.121109    4.547912    0.638723
  H     -0.913812    3.835904    1.557069
  H      0.223634    1.823825    0.655114

 Multiplicity           Mult            ....    1
 Number of Electrons    NEL             ....  146
 Basis Dimension        Dim             ....  369

ORBITAL ENERGIES
----------------

  NO   OCC          E(Eh)            E(eV)
   0   2.0000     -77.048459     -2096.5952
   1   2.0000     -10.195222      -277.4261
   2   2.0000     -10.190045      -277.2852
   3   2.0000     -10.190012      -277.2843
   4   2.0000     -10.189845      -277.2798
   5   2.0000     -10.189798      -277.2785
   6   2.0000     -10.189640      -277.2742
   7   2.0000     -10.189636      -277.2741
   8   2.0000     -10.189199      -277.2622
   9   2.0000     -10.189122      -277.2601
  10   2.0000     -10.188871      -277.2533
  11   2.0000     -10.188821      -277.2519
  12   2.0000     -10.188821      -277.2519
  13   2.0000     -10.187790      -277.2239
  14   2.0000     -10.187719      -277.2219
  15   2.0000     -10.187256      -277.2093
  16   2.0000     -10.187034      -277.2033
  17   2.0000     -10.186863      -277.1986
  18   2.0000     -10.185485      -277.1611
  19   2.0000     -10.185069      -277.1498
  20   2.0000      -6.544157      -178.0756
  21   2.0000      -4.709598      -128.1547
  22   2.0000      -4.709583      -128.1543
  23   2.0000      -4.706682      -128.0753
  24   2.0000      -0.851171       -23.1616
  25   2.0000      -0.844194       -22.9717
  26   2.0000      -0.842198       -22.9174
  27   2.0000      -0.772179       -21.0121
  28   2.0000      -0.747920       -20.3520
  29   2.0000      -0.736241       -20.0341
  30   2.0000      -0.735172       -20.0050
  31   2.0000      -0.734252       -19.9800
  32   2.0000      -0.730269       -19.8716
  33   2.0000      -0.682607       -18.5747
  34   2.0000      -0.631506       -17.1842
  35   2.0000      -0.600287       -16.3346
  36   2.0000      -0.597908       -16.2699
  37   2.0000      -0.596895       -16.2423
  38   2.0000      -0.586887       -15.9700
  39   2.0000      -0.576408       -15.6849
  40   2.0000      -0.550831       -14.9889
  41   2.0000      -0.513015       -13.9599
  42   2.0000      -0.505273       -13.7492
  43   2.0000      -0.478263       -13.0142
  44   2.0000      -0.464195       -12.6314
  45   2.0000      -0.452688       -12.3183
  46   2.0000      -0.451444       -12.2844
  47   2.0000      -0.444785       -12.1032
  48   2.0000      -0.443299       -12.0628
  49   2.0000      -0.436052       -11.8656
  50   2.0000      -0.420315       -11.4373
  51   2.0000      -0.418960       -11.4005
  52   2.0000      -0.417589       -11.3632
  53   2.0000      -0.416420       -11.3314
  54   2.0000      -0.404978       -11.0200
  55   2.0000      -0.396944       -10.8014
  56   2.0000      -0.384801       -10.4710
  57   2.0000      -0.369684       -10.0596
  58   2.0000      -0.365637        -9.9495
  59   2.0000      -0.361622        -9.8402
  60   2.0000      -0.354997        -9.6600
  61   2.0000      -0.343301        -9.3417
  62   2.0000      -0.342858        -9.3296
  63   2.0000      -0.338023        -9.1981
  64   2.0000      -0.320871        -8.7313
  65   2.0000      -0.320328        -8.7166
  66   2.0000      -0.272813        -7.4236
  67   2.0000      -0.258337        -7.0297
  68   2.0000      -0.257793        -7.0149
  69   2.0000      -0.253885        -6.9086
  70   2.0000      -0.250239        -6.8094
  71   2.0000      -0.247737        -6.7413
  72   2.0000      -0.211791        -5.7631
  73   0.0000      -0.022363        -0.6085
  74   0.0000      -0.021719        -0.5910
  75   0.0000      -0.018961        -0.5160
  76   0.0000      -0.005174        -0.1408
  77   0.0000      -0.001782        -0.0485

MULLIKEN ATOMIC CHARGES
-----------------------
   0 C :    0.077746
   1 C :   -0.034349
   2 C :   -0.006052
   3 C :    0.025422
   4 C :   -0.165119
   5 C :    0.029904
   6 C :   -0.010810
   7 P :    0.361382
   8 C :   -0.164636
   9 C :    0.025679
  10 C :    0.020343
  11 C :    0.022889
  12 C :    0.024697
  13 C :    0.017137
  14 C :   -0.165941
  15 C :    0.024412
  16 C :    0.020403
  17 C :    0.022902
  18 C :    0.025192
  19 C :    0.017316
  20 H :    0.013950
  21 H :    0.013982
  22 H :    0.032470
  23 H :   -0.034275
  24 H :   -0.005117
  25 H :   -0.019216
  26 H :   -0.032120
  27 H :   -0.016743
  28 H :   -0.016201
  29 H :   -0.016348
  30 H :   -0.018568
  31 H :   -0.001227
  32 H :   -0.016433
  33 H :   -0.016080
  34 H :   -0.016277
  35 H :   -0.018752
  36 H :   -0.001563
Sum of atomic charges:   -0.0000000

LOEWDIN ATOMIC CHARGES
----------------------
   0 C :   -0.045347
   1 C :   -0.021612
   2 C :   -0.030753
   3 C :   -0.027478
   4 C :   -0.181083
   5 C :   -0.026379
   6 C :   -0.030541
   7 P :    0.513336
   8 C :   -0.172541
   9 C :   -0.028737
  10 C :   -0.025818
  11 C :   -0.024000
  12 C :   -0.025782
  13 C :   -0.031211
  14 C :   -0.173398
  15 C :   -0.029154
  16 C :   -0.025934
  17 C :   -0.023915
  18 C :   -0.025770
  19 C :   -0.030590
  20 H :    0.029625
  21 H :    0.029583
  22 H :    0.037540
  23 H :    0.023589
  24 H :    0.029105
  25 H :    0.024453
  26 H :    0.024031
  27 H :    0.024517
  28 H :    0.027232
  29 H :    0.026559
  30 H :    0.026801
  31 H :    0.029197
  32 H :    0.024556
  33 H :    0.027276
  34 H :    0.026582
  35 H :    0.026721
  36 H :    0.029338

  Mayer bond orders larger than 0.100000
B(  0-C ,  1-C ) :   1.0633 B(  0-C , 20-H ) :   0.9579 B(  0-C , 21-H ) :   0.9579
B(  0-C , 22-H ) :   0.9514 B(  1-C ,  2-C ) :   1.3812 B(  1-C ,  6-C ) :   1.3789
B(  2-C ,  3-C ) :   1.3784 B(  2-C , 23-H ) :   0.9859 B(  3-C ,  4-C ) :   1.3755
B(  3-C , 24-H ) :   0.9792 B(  4-C ,  5-C ) :   1.3645 B(  4-C ,  7-P ) :   0.9332
B(  5-C ,  6-C ) :   1.3978 B(  5-C , 25-H ) :   0.9809 B(  6-C , 26-H ) :   0.9864
B(  7-P ,  8-C ) :   0.9296 B(  7-P , 14-C ) :   0.9276 B(  8-C ,  9-C ) :   1.3705
B(  8-C , 13-C ) :   1.3878 B(  9-C , 10-C ) :   1.4062 B(  9-C , 27-H ) :   0.9814
B( 10-C , 11-C ) :   1.3749 B( 10-C , 28-H ) :   0.9847 B( 11-C , 12-C ) :   1.3825
B( 11-C , 29-H ) :   0.9844 B( 12-C , 13-C ) :   1.3822 B( 12-C , 30-H ) :   0.9837
B( 13-C , 31-H ) :   0.9791 B( 14-C , 15-C ) :   1.3699 B( 14-C , 19-C ) :   1.3880
B( 15-C , 16-C ) :   1.4059 B( 15-C , 32-H ) :   0.9815 B( 16-C , 17-C ) :   1.3752
B( 16-C , 33-H ) :   0.9848 B( 17-C , 18-C ) :   1.3822 B( 17-C , 34-H ) :   0.9843
B( 18-C , 19-C ) :   1.3824 B( 18-C , 35-H ) :   0.9836 B( 19-C , 36-H ) :   0.9794

Dispersion correction           -0.091097883
FINAL SINGLE POINT ENERGY     -1074.556095404952

DIPOLE MOMENT
-------------

Method             : SCF
Type of density    : Electron Density
Multiplicity       :   1
Irrep              :   0
Energy             : -1074.4649975223812817 Eh
Relativity type    :
Basis              : AO
                                X                 Y                 Z
Electronic contribution:     -7.686151480      -0.627535160      -7.286899298
Nuclear contribution   :      7.923069673       0.657671346       7.857157544
                        -----------------------------------------
Total Dipole Moment    :      0.236918194       0.030136186       0.570258246
                        -----------------------------------------
Magnitude (a.u.)       :      0.618249859
Magnitude (Debye)      :      1.571466254

Rotational constants in cm-1:             0.011737             0.008932             0.005945
Rotational constants in MHz :           351.875689           267.778386           178.230707

                             ****ORCA TERMINATED NORMALLY****
TOTAL RUN TIME: 0 days 0 hours 5 minutes 47 seconds 628 msec
