                         Program Version 6.0.0  -   RELEASE   -
|  1> ! RI BP86 def2-SVP D3BJ TIGHTSCF Opt
|  2> %pal
|  3> nprocs 6
|  4> end
|  5>
|  6> * xyz 0 1
|  7> C      3.939771   -1.242537   -0.465123
|  8> C      2.635732   -1.328774    0.314423
|  9> C      1.900392    0.013441    0.314691
| 10> P      0.349145   -0.034553    1.322572
| 11> C     -0.437501    1.584132    0.991036
| 12> C     -1.831938    1.719274    1.109529
| 13> C     -2.463907    2.945284    0.882291
| 14> C     -1.710314    4.065279    0.547186
| 15> C     -0.326246    3.959755    0.448134
| 16> C      0.304532    2.731545    0.675138
| 17> C     -0.686293   -1.167693    0.332886
| 18> C     -1.171843   -2.336732    0.937522
| 19> C     -1.960639   -3.238826    0.218923
| 20> C     -2.274163   -2.983780   -1.113781
| 21> C     -1.799997   -1.827427   -1.728262
| 22> C     -1.010438   -0.925680   -1.010098
| 23> H      4.451477   -2.210019   -0.455465
| 24> H      3.755255   -0.966180   -1.508163
| 25> H      4.611766   -0.498725   -0.025273
| 26> H      2.856560   -1.643175    1.341980
| 27> H      2.013083   -2.112785   -0.132150
| 28> H      1.687190    0.320903   -0.715106
| 29> H      2.566405    0.768718    0.747088
| 30> H     -2.448485    0.864102    1.381277
| 31> H     -3.544228    3.021265    0.972666
| 32> H     -2.199377    5.019787    0.373002
| 33> H      0.268210    4.835467    0.200630
| 34> H      1.387841    2.700036    0.607418
| 35> H     -0.939579   -2.557266    1.977489
| 36> H     -2.329283   -4.139864    0.702000
| 37> H     -2.888578   -3.684685   -1.672528
| 38> H     -2.045510   -1.623368   -2.767132
| 39> H     -0.659043   -0.026920   -1.511905
| 40> **                         ****END OF INPUT****
 Total Charge           Charge          ....    0
 Multiplicity           Mult            ....    1
 Number of Electrons    NEL             ....  122
Dispersion correction           -0.069356100
FINAL SINGLE POINT ENERGY      -922.756961087563
Dispersion correction             ... done (  0.1 sec)
Dispersion correction           -0.069400676
FINAL SINGLE POINT ENERGY      -922.761904857225
Dispersion correction             ... done (  0.1 sec)
Dispersion correction           -0.069627096
FINAL SINGLE POINT ENERGY      -922.762510153427
Dispersion correction             ... done (  0.1 sec)
FINAL SINGLE POINT ENERGY      -922.762673295735
FINAL SINGLE POINT ENERGY      -922.762720645097
FINAL SINGLE POINT ENERGY      -922.762741995968
FINAL SINGLE POINT ENERGY      -922.762752672198
FINAL SINGLE POINT ENERGY      -922.762765645345
FINAL SINGLE POINT ENERGY      -922.762773151060
Dispersion correction             ... done (  0.1 sec)
Dispersion correction           -0.069511038
FINAL SINGLE POINT ENERGY      -922.762777121434
Dispersion correction             ... done (  0.1 sec)
Dispersion correction           -0.069497647
FINAL SINGLE POINT ENERGY      -922.762779381544
Dispersion correction             ... done (  0.1 sec)
                    ***********************HURRAY********************

CARTESIAN COORDINATES (ANGSTROEM)
---------------------------------
  C      3.900213   -1.351463   -0.349194
  C      2.585750   -1.360552    0.438173
  C      1.883308    0.003456    0.435904
  P      0.296462   -0.018828    1.439950
  C     -0.454233    1.610551    0.990904
  C     -1.818319    1.809999    1.310373
  C     -2.447865    3.032973    1.043689
  C     -1.721773    4.091109    0.466843
  C     -0.365072    3.910251    0.157819
  C      0.264600    2.679265    0.414563
  C     -0.713346   -1.140363    0.356268
  C     -0.984135   -2.445453    0.817455
  C     -1.700525   -3.352435    0.017434
  C     -2.161862   -2.958558   -1.248911
  C     -1.903216   -1.656307   -1.714278
  C     -1.183420   -0.753356   -0.917928
  H      4.387837   -2.347626   -0.336894
  H      3.730214   -1.074442   -1.410858
  H      4.620721   -0.619523    0.072961
  H      2.774381   -1.675043    1.488401
  H      1.900204   -2.124888    0.011782
  H      1.665330    0.329578   -0.605228
  H      2.545606    0.771791    0.892049
  H     -2.394181    0.987384    1.764728
  H     -3.512786    3.164410    1.290872
  H     -2.213989    5.053957    0.261417
  H      0.212271    4.732025   -0.293869
  H      1.326625    2.559554    0.155280
  H     -0.629795   -2.748174    1.815996
  H     -1.904689   -4.368804    0.388464
  H     -2.728717   -3.665287   -1.874435
  H     -2.266990   -1.343147   -2.705376
  H     -0.988612    0.267945   -1.281457

 Multiplicity           Mult            ....    1
 Number of Electrons    NEL             ....  122
 Basis Dimension        Dim             ....  313

ORBITAL ENERGIES
----------------

  NO   OCC          E(Eh)            E(eV)
   0   2.0000     -76.339954     -2077.3157
   1   2.0000      -9.924347      -270.0552
   2   2.0000      -9.924248      -270.0525
   3   2.0000      -9.923912      -270.0434
   4   2.0000      -9.923530      -270.0330
   5   2.0000      -9.922946      -270.0171
   6   2.0000      -9.922855      -270.0146
   7   2.0000      -9.922518      -270.0055
   8   2.0000      -9.921843      -269.9871
   9   2.0000      -9.921094      -269.9667
  10   2.0000      -9.920708      -269.9562
  11   2.0000      -9.920471      -269.9497
  12   2.0000      -9.919939      -269.9353
  13   2.0000      -9.919250      -269.9165
  14   2.0000      -9.916467      -269.8408
  15   2.0000      -9.908635      -269.6277
  16   2.0000      -6.308959      -171.6755
  17   2.0000      -4.530580      -123.2833
  18   2.0000      -4.530178      -123.2724
  19   2.0000      -4.526747      -123.1791
  20   2.0000      -0.775007       -21.0890
  21   2.0000      -0.768953       -20.9243
  22   2.0000      -0.714660       -19.4469
  23   2.0000      -0.684650       -18.6303
  24   2.0000      -0.670710       -18.2509
  25   2.0000      -0.668837       -18.2000
  26   2.0000      -0.665059       -18.0972
  27   2.0000      -0.622144       -16.9294
  28   2.0000      -0.566158       -15.4059
  29   2.0000      -0.543557       -14.7909
  30   2.0000      -0.541665       -14.7395
  31   2.0000      -0.533233       -14.5100
  32   2.0000      -0.521839       -14.1999
  33   2.0000      -0.494268       -13.4497
  34   2.0000      -0.463911       -12.6237
  35   2.0000      -0.447411       -12.1747
  36   2.0000      -0.416903       -11.3445
  37   2.0000      -0.407246       -11.0817
  38   2.0000      -0.406667       -11.0660
  39   2.0000      -0.400102       -10.8873
  40   2.0000      -0.395395       -10.7592
  41   2.0000      -0.377719       -10.2782
  42   2.0000      -0.376271       -10.2388
  43   2.0000      -0.372686       -10.1413
  44   2.0000      -0.369531       -10.0554
  45   2.0000      -0.358619        -9.7585
  46   2.0000      -0.344123        -9.3641
  47   2.0000      -0.333537        -9.0760
  48   2.0000      -0.329049        -8.9539
  49   2.0000      -0.325914        -8.8686
  50   2.0000      -0.305499        -8.3130
  51   2.0000      -0.305337        -8.3086
  52   2.0000      -0.302252        -8.2247
  53   2.0000      -0.291569        -7.9340
  54   2.0000      -0.282953        -7.6995
  55   2.0000      -0.278545        -7.5796
  56   2.0000      -0.243514        -6.6263
  57   2.0000      -0.234853        -6.3907
  58   2.0000      -0.234158        -6.3718
  59   2.0000      -0.229871        -6.2551
  60   2.0000      -0.194055        -5.2805
  61   0.0000      -0.057120        -1.5543
  62   0.0000      -0.050067        -1.3624
  63   0.0000      -0.048624        -1.3231
  64   0.0000      -0.039217        -1.0672
  65   0.0000       0.024256         0.6600

MULLIKEN ATOMIC CHARGES
-----------------------
   0 C :   -0.048904
   1 C :   -0.030619
   2 C :   -0.196463
   3 P :    0.229827
   4 C :   -0.127610
   5 C :    0.008155
   6 C :   -0.001858
   7 C :    0.000385
   8 C :    0.005004
   9 C :   -0.022017
  10 C :   -0.149354
  11 C :    0.010928
  12 C :   -0.003174
  13 C :    0.003384
  14 C :    0.002756
  15 C :    0.019111
  16 H :    0.033279
  17 H :    0.028276
  18 H :    0.026858
  19 H :    0.029338
  20 H :    0.041064
  21 H :    0.047595
  22 H :    0.062683
  23 H :    0.003784
  24 H :    0.003778
  25 H :    0.002916
  26 H :    0.000309
  27 H :   -0.005911
  28 H :   -0.000103
  29 H :    0.004656
  30 H :    0.005296
  31 H :    0.003133
  32 H :    0.013494
Sum of atomic charges:   -0.0000000

LOEWDIN ATOMIC CHARGES
----------------------
   0 C :   -0.073076
   1 C :   -0.060284
   2 C :   -0.180668
   3 P :    0.481918
   4 C :   -0.173303
   5 C :   -0.032996
   6 C :   -0.030173
   7 C :   -0.034320
   8 C :   -0.030912
   9 C :   -0.047759
  10 C :   -0.171379
  11 C :   -0.037861
  12 C :   -0.032611
  13 C :   -0.027896
  14 C :   -0.030903
  15 C :   -0.028909
  16 H :    0.030407
  17 H :    0.027556
  18 H :    0.026311
  19 H :    0.026961
  20 H :    0.030056
  21 H :    0.022607
  22 H :    0.027646
  23 H :    0.031535
  24 H :    0.033297
  25 H :    0.032167
  26 H :    0.032228
  27 H :    0.028065
  28 H :    0.029106
  29 H :    0.033312
  30 H :    0.032988
  31 H :    0.033130
  32 H :    0.033758

  Mayer bond orders larger than 0.100000
B(  0-C ,  1-C ) :   1.1141 B(  0-C , 16-H ) :   0.9627 B(  0-C , 17-H ) :   0.9667
B(  0-C , 18-H ) :   0.9680 B(  1-C ,  2-C ) :   1.0605 B(  1-C , 19-H ) :   0.9357
B(  1-C , 20-H ) :   0.9362 B(  2-C ,  3-P ) :   0.9766 B(  2-C , 21-H ) :   0.9185
B(  2-C , 22-H ) :   0.9274 B(  3-P ,  4-C ) :   0.9201 B(  3-P , 10-C ) :   0.9336
B(  4-C ,  5-C ) :   1.3586 B(  4-C ,  9-C ) :   1.3811 B(  5-C ,  6-C ) :   1.4209
B(  5-C , 23-H ) :   0.9708 B(  6-C ,  7-C ) :   1.3654 B(  6-C , 24-H ) :   0.9755
B(  7-C ,  8-C ) :   1.3906 B(  7-C , 25-H ) :   0.9758 B(  8-C ,  9-C ) :   1.3811
B(  8-C , 26-H ) :   0.9729 B(  9-C , 27-H ) :   0.9677 B( 10-C , 11-C ) :   1.3765
B( 10-C , 15-C ) :   1.3688 B( 11-C , 12-C ) :   1.3800 B( 11-C , 28-H ) :   0.9743
B( 12-C , 13-C ) :   1.3893 B( 12-C , 29-H ) :   0.9765 B( 13-C , 14-C ) :   1.3683
B( 13-C , 30-H ) :   0.9757 B( 14-C , 15-C ) :   1.4005 B( 14-C , 31-H ) :   0.9746
B( 15-C , 32-H ) :   0.9648

Dispersion correction           -0.069499147
FINAL SINGLE POINT ENERGY      -922.762779925582

DIPOLE MOMENT
-------------

Method             : SCF
Type of density    : Electron Density
Multiplicity       :   1
Irrep              :   0
Energy             :  -922.6932807784580746 Eh
Relativity type    :
Basis              : AO
                                X                 Y                 Z
Electronic contribution:    -10.202651157       3.397962623       5.790408742
Nuclear contribution   :     10.218417917      -3.454219347      -6.305267222
                        -----------------------------------------
Total Dipole Moment    :      0.015766760      -0.056256724      -0.514858480
                        -----------------------------------------
Magnitude (a.u.)       :      0.518162778
Magnitude (Debye)      :      1.317065113

Rotational constants in cm-1:             0.019376             0.012036             0.008627
Rotational constants in MHz :           580.869391           360.828865           258.629803

                             ****ORCA TERMINATED NORMALLY****
TOTAL RUN TIME: 0 days 0 hours 2 minutes 25 seconds 448 msec
