                         Program Version 6.0.0  -   RELEASE   -
|  1> ! RI BP86 def2-SVP D3BJ TIGHTSCF Opt
|  2> %pal
|  3> nprocs 6
|  4> end
|  5>
|  6> * xyz 0 1
|  7> C     -2.770365   -3.236144   -0.608013
|  8> C     -1.990317   -3.526482    0.506803
|  9> C     -1.178125   -2.537240    1.068385
| 10> C     -1.127785   -1.240494    0.525182
| 11> C     -1.924284   -0.969186   -0.597142
| 12> C     -2.737758   -1.958559   -1.159493
| 13> P     -0.038247   -0.020818    1.330177
| 14> C      1.605642   -0.356379    0.617614
| 15> C      2.721520    0.248737    1.224082
| 16> C      4.013995    0.038643    0.735209
| 17> C      4.215085   -0.783767   -0.368779
| 18> C      3.125091   -1.394681   -0.982061
| 19> C      1.831820   -1.183544   -0.492464
| 20> C     -0.527577    1.569809    0.586414
| 21> C     -1.641799    2.234991    1.129731
| 22> C     -2.077040    3.458845    0.613617
| 23> C     -1.403557    4.042318   -0.454823
| 24> C     -0.296843    3.402446   -1.005427
| 25> C      0.137850    2.177380   -0.488619
| 26> H     -3.403469   -4.003160   -1.045838
| 27> H     -2.011656   -4.521745    0.942859
| 28> H     -0.577129   -2.792504    1.939730
| 29> H     -1.925742    0.013244   -1.062219
| 30> H     -3.346110   -1.726215   -2.029893
| 31> H      2.593191    0.898165    2.088589
| 32> H      4.860730    0.518086    1.219283
| 33> H      5.219029   -0.949583   -0.750125
| 34> H      3.276861   -2.039028   -1.844300
| 35> H      1.009200   -1.676370   -1.004210
| 36> H     -2.188405    1.800623    1.965282
| 37> H     -2.941407    3.953493    1.048754
| 38> H     -1.739275    4.994269   -0.857200
| 39> H      0.233548    3.854583   -1.839650
| 40> H      1.003328    1.710264   -0.951453
| 41> **                         ****END OF INPUT****
 Total Charge           Charge          ....    0
 Multiplicity           Mult            ....    1
 Number of Electrons    NEL             ....  138
Dispersion correction           -0.080981877
FINAL SINGLE POINT ENERGY     -1035.803905279418
Dispersion correction             ... done (  0.1 sec)
Dispersion correction           -0.081537895
FINAL SINGLE POINT ENERGY     -1035.809082460900
Dispersion correction             ... done (  0.1 sec)
Dispersion correction           -0.081740206
FINAL SINGLE POINT ENERGY     -1035.809714872702
Dispersion correction             ... done (  0.1 sec)
FINAL SINGLE POINT ENERGY     -1035.809923034742
Dispersion correction             ... done (  0.1 sec)
Dispersion correction           -0.081746263
FINAL SINGLE POINT ENERGY     -1035.809953875612
Dispersion correction             ... done (  0.1 sec)
Dispersion correction           -0.081758808
FINAL SINGLE POINT ENERGY     -1035.809956583380
Dispersion correction             ... done (  0.1 sec)
                    ***********************HURRAY********************

CARTESIAN COORDINATES (ANGSTROEM)
---------------------------------
  C     -2.714851   -3.201923   -0.669006
  C     -1.958237   -3.529170    0.469887
  C     -1.177510   -2.548684    1.100229
  C     -1.125332   -1.232646    0.588846
  C     -1.888215   -0.912291   -0.553537
  C     -2.680351   -1.892056   -1.175122
  P     -0.042403   -0.023909    1.482107
  C      1.593918   -0.359134    0.680797
  C      2.728372    0.255715    1.256277
  C      4.001641    0.071034    0.696971
  C      4.161394   -0.748434   -0.434227
  C      3.040887   -1.375675   -1.003555
  C      1.763044   -1.181056   -0.453010
  C     -0.522239    1.559511    0.649099
  C     -1.652404    2.236057    1.160355
  C     -2.095336    3.430973    0.573816
  C     -1.401195    3.977800   -0.519731
  C     -0.267602    3.319583   -1.024635
  C      0.169216    2.115381   -0.447557
  H     -3.335079   -3.968116   -1.158959
  H     -1.984209   -4.552390    0.875601
  H     -0.595555   -2.803959    2.000845
  H     -1.857351    0.109327   -0.960821
  H     -3.272017   -1.629148   -2.065828
  H      2.606522    0.888625    2.150394
  H      4.875851    0.561787    1.152106
  H      5.161183   -0.901373   -0.868760
  H      3.160002   -2.020262   -1.888368
  H      0.888172   -1.667881   -0.909283
  H     -2.190050    1.815193    2.025585
  H     -2.981695    3.943812    0.978277
  H     -1.742111    4.920158   -0.975285
  H      0.281490    3.743765   -1.879694
  H      1.052048    1.599387   -0.853811

 Multiplicity           Mult            ....    1
 Number of Electrons    NEL             ....  138
 Basis Dimension        Dim             ....  345

ORBITAL ENERGIES
----------------

  NO   OCC          E(Eh)            E(eV)
   0   2.0000     -76.345926     -2077.4783
   1   2.0000      -9.926294      -270.1082
   2   2.0000      -9.926286      -270.1080
   3   2.0000      -9.926213      -270.1060
   4   2.0000      -9.923972      -270.0450
   5   2.0000      -9.923954      -270.0445
   6   2.0000      -9.923942      -270.0442
   7   2.0000      -9.923387      -270.0291
   8   2.0000      -9.923381      -270.0289
   9   2.0000      -9.923377      -270.0288
  10   2.0000      -9.923086      -270.0209
  11   2.0000      -9.923085      -270.0209
  12   2.0000      -9.923081      -270.0207
  13   2.0000      -9.922725      -270.0111
  14   2.0000      -9.922722      -270.0110
  15   2.0000      -9.922715      -270.0108
  16   2.0000      -9.921929      -269.9894
  17   2.0000      -9.921912      -269.9889
  18   2.0000      -9.921891      -269.9884
  19   2.0000      -6.314281      -171.8203
  20   2.0000      -4.535710      -123.4229
  21   2.0000      -4.535708      -123.4229
  22   2.0000      -4.532131      -123.3256
  23   2.0000      -0.778713       -21.1899
  24   2.0000      -0.770514       -20.9667
  25   2.0000      -0.770496       -20.9663
  26   2.0000      -0.697299       -18.9745
  27   2.0000      -0.671908       -18.2836
  28   2.0000      -0.671901       -18.2834
  29   2.0000      -0.670395       -18.2424
  30   2.0000      -0.665843       -18.1185
  31   2.0000      -0.665833       -18.1182
  32   2.0000      -0.585534       -15.9332
  33   2.0000      -0.544705       -14.8222
  34   2.0000      -0.544682       -14.8215
  35   2.0000      -0.542661       -14.7666
  36   2.0000      -0.532883       -14.5005
  37   2.0000      -0.532866       -14.5000
  38   2.0000      -0.500905       -13.6303
  39   2.0000      -0.465547       -12.6682
  40   2.0000      -0.465538       -12.6679
  41   2.0000      -0.442815       -12.0496
  42   2.0000      -0.409101       -11.1322
  43   2.0000      -0.409083       -11.1317
  44   2.0000      -0.407552       -11.0900
  45   2.0000      -0.399704       -10.8765
  46   2.0000      -0.399691       -10.8761
  47   2.0000      -0.392681       -10.6854
  48   2.0000      -0.376984       -10.2583
  49   2.0000      -0.376348       -10.2409
  50   2.0000      -0.376330       -10.2405
  51   2.0000      -0.364890        -9.9292
  52   2.0000      -0.364871        -9.9286
  53   2.0000      -0.335117        -9.1190
  54   2.0000      -0.331267        -9.0142
  55   2.0000      -0.331251        -9.0138
  56   2.0000      -0.324318        -8.8251
  57   2.0000      -0.305797        -8.3212
  58   2.0000      -0.305787        -8.3209
  59   2.0000      -0.305053        -8.3009
  60   2.0000      -0.287398        -7.8205
  61   2.0000      -0.287352        -7.8193
  62   2.0000      -0.250916        -6.8278
  63   2.0000      -0.238143        -6.4802
  64   2.0000      -0.237291        -6.4570
  65   2.0000      -0.237283        -6.4568
  66   2.0000      -0.230772        -6.2796
  67   2.0000      -0.230762        -6.2794
  68   2.0000      -0.194146        -5.2830
  69   0.0000      -0.058517        -1.5923
  70   0.0000      -0.058491        -1.5916
  71   0.0000      -0.055947        -1.5224
  72   0.0000      -0.043558        -1.1853
  73   0.0000      -0.040273        -1.0959

MULLIKEN ATOMIC CHARGES
-----------------------
   0 C :    0.003133
   1 C :   -0.000832
   2 C :    0.015034
   3 C :   -0.162951
   4 C :    0.006396
   5 C :    0.003429
   6 P :    0.301869
   7 C :   -0.163082
   8 C :    0.015148
   9 C :   -0.000755
  10 C :    0.003101
  11 C :    0.003338
  12 C :    0.006382
  13 C :   -0.162898
  14 C :    0.015236
  15 C :   -0.000723
  16 C :    0.003122
  17 C :    0.003395
  18 C :    0.006072
  19 H :    0.004902
  20 H :    0.005330
  21 H :    0.004472
  22 H :    0.017569
  23 H :    0.002906
  24 H :    0.004479
  25 H :    0.005340
  26 H :    0.004910
  27 H :    0.002909
  28 H :    0.017493
  29 H :    0.004490
  30 H :    0.005348
  31 H :    0.004912
  32 H :    0.002908
  33 H :    0.017619
Sum of atomic charges:   -0.0000000

LOEWDIN ATOMIC CHARGES
----------------------
   0 C :   -0.029868
   1 C :   -0.031023
   2 C :   -0.034194
   3 C :   -0.172317
   4 C :   -0.035462
   5 C :   -0.030638
   6 P :    0.499984
   7 C :   -0.172292
   8 C :   -0.034209
   9 C :   -0.031015
  10 C :   -0.029879
  11 C :   -0.030660
  12 C :   -0.035452
  13 C :   -0.172273
  14 C :   -0.034204
  15 C :   -0.031028
  16 C :   -0.029863
  17 C :   -0.030640
  18 C :   -0.035489
  19 H :    0.032932
  20 H :    0.033762
  21 H :    0.031219
  22 H :    0.035617
  23 H :    0.033316
  24 H :    0.031201
  25 H :    0.033769
  26 H :    0.032932
  27 H :    0.033314
  28 H :    0.035599
  29 H :    0.031191
  30 H :    0.033775
  31 H :    0.032935
  32 H :    0.033316
  33 H :    0.035642

  Mayer bond orders larger than 0.100000
B(  0-C ,  1-C ) :   1.3743 B(  0-C ,  5-C ) :   1.3793 B(  0-C , 19-H ) :   0.9757
B(  1-C ,  2-C ) :   1.4044 B(  1-C , 20-H ) :   0.9758 B(  2-C ,  3-C ) :   1.3617
B(  2-C , 21-H ) :   0.9715 B(  3-C ,  4-C ) :   1.3838 B(  3-C ,  6-P ) :   0.9349
B(  4-C ,  5-C ) :   1.3815 B(  4-C , 22-H ) :   0.9666 B(  5-C , 23-H ) :   0.9747
B(  6-P ,  7-C ) :   0.9351 B(  6-P , 13-C ) :   0.9350 B(  7-C ,  8-C ) :   1.3617
B(  7-C , 12-C ) :   1.3836 B(  8-C ,  9-C ) :   1.4043 B(  8-C , 24-H ) :   0.9715
B(  9-C , 10-C ) :   1.3743 B(  9-C , 25-H ) :   0.9758 B( 10-C , 11-C ) :   1.3794
B( 10-C , 26-H ) :   0.9757 B( 11-C , 12-C ) :   1.3816 B( 11-C , 27-H ) :   0.9747
B( 12-C , 28-H ) :   0.9667 B( 13-C , 14-C ) :   1.3616 B( 13-C , 18-C ) :   1.3839
B( 14-C , 15-C ) :   1.4043 B( 14-C , 29-H ) :   0.9714 B( 15-C , 16-C ) :   1.3742
B( 15-C , 30-H ) :   0.9758 B( 16-C , 17-C ) :   1.3794 B( 16-C , 31-H ) :   0.9757
B( 17-C , 18-C ) :   1.3816 B( 17-C , 32-H ) :   0.9747 B( 18-C , 33-H ) :   0.9666

Dispersion correction           -0.081751367
FINAL SINGLE POINT ENERGY     -1035.809957293486

DIPOLE MOMENT
-------------

Method             : SCF
Type of density    : Electron Density
Multiplicity       :   1
Irrep              :   0
Energy             : -1035.7282059269239198 Eh
Relativity type    :
Basis              : AO
                                X                 Y                 Z
Electronic contribution:     -0.163254793      -0.093438269       5.740029726
Nuclear contribution   :      0.178488244       0.102182751      -6.282111493
                        -----------------------------------------
Total Dipole Moment    :      0.015233450       0.008744482      -0.542081767
                        -----------------------------------------
Magnitude (a.u.)       :      0.542366265
Magnitude (Debye)      :      1.378585489

Rotational constants in cm-1:             0.011871             0.011857             0.007056
Rotational constants in MHz :           355.890322           355.477699           211.542112

                             ****ORCA TERMINATED NORMALLY****
TOTAL RUN TIME: 0 days 0 hours 1 minutes 50 seconds 367 msec
