                         Program Version 6.0.0  -   RELEASE   -
|  1> ! RIJCOSX M062X def2-TZVP D3ZERO NormalSCF
|  2> %pal
|  3> nprocs 6
|  4> end
|  5>
|  6> * xyz 0 1
|  7>   C          -5.09904419075919     -1.34187716485516      0.08965235672899
|  8>   C          -3.61341802027951     -1.58300471976631     -0.03991574785052
|  9>   C          -2.69840497458985     -0.91294735349641      0.79568588154451
| 10>   C          -1.30472192484815     -1.08867368247852      0.66012524798896
| 11>   C          -0.81621731253650     -1.97861922034053     -0.31783518753795
| 12>   C          -1.71796106145845     -2.66835885480727     -1.14424280863879
| 13>   C          -3.10080700976469     -2.47069182748714     -1.01065183068757
| 14>   P          -0.22356761897338     -0.10880279359069      1.80144073189125
| 15>   C          -0.12272717152876      1.49893434513295      0.88402488109718
| 16>   C           0.48117711349264      2.58577269462085      1.55333153609927
| 17>   C           0.60959107760366      3.82342746033974      0.90691917932853
| 18>   C           0.12254045787024      3.99318769017440     -0.39967892882153
| 19>   C          -0.49371335926536      2.92542967194199     -1.08443380254485
| 20>   C          -0.60716910270401      1.68295350523640     -0.42572898336472
| 21>   C          -0.99159888170507      3.08965043782714     -2.50146233044952
| 22>   C           1.43863669487333     -0.83079841145416      1.41830889493635
| 23>   C           1.82091956346984     -1.98372673386266      2.13832107777408
| 24>   C           3.05970561121919     -2.58979695814466      1.88482677163586
| 25>   C           3.93211761546243     -2.04336984591291      0.92925200031035
| 26>   C           3.57647653574437     -0.88672332131838      0.20484740831269
| 27>   C           2.32289864047916     -0.29326791461523      0.46272137396444
| 28>   C           4.49606997531303     -0.31017459571670     -0.84611078709156
| 29>   H          -5.41794626821606     -0.47920728252370     -0.53505906489384
| 30>   H          -5.38485586567023     -1.10888950653281      1.13471166185980
| 31>   H          -5.68665949419333     -2.22070621781867     -0.24248932271066
| 32>   H          -3.07971303975586     -0.22910676210235      1.57313697741224
| 33>   H           0.26755348140875     -2.12849338649032     -0.43153007563873
| 34>   H          -1.33587115070258     -3.36845969851561     -1.90368926857257
| 35>   H          -3.79831996731885     -3.01852263691258     -1.66447900013792
| 36>   H           0.85029814144344      2.45624249737503      2.58344266646554
| 37>   H           1.08164389846498      4.66943370846400      1.43037230380608
| 38>   H           0.21549032559167      4.97291634808971     -0.89534817297750
| 39>   H          -1.08155479933650      0.83828728683776     -0.94921708954849
| 40>   H          -1.87123169417834      2.44560157693413     -2.70023860415069
| 41>   H          -1.27335043521842      4.13936558641958     -2.71754610456137
| 42>   H          -0.20682958300337      2.80357974483271     -3.23532654572399
| 43>   H           1.14281850196226     -2.40263892907120      2.89915255623342
| 44>   H           3.35577780461718     -3.48923229438127      2.44687205356346
| 45>   H           4.90979355349092     -2.51771650249911      0.74669283188525
| 46>   H           2.02956436101413      0.60910390384400     -0.09624161058951
| 47>   H           5.55854921013493     -0.53987031392826     -0.63084456807337
| 48>   H           4.26711135921949     -0.73023385521510     -1.84979113794574
| 49>   H           4.38694700313082      0.79002432576730     -0.92197642032686
| 50> **                         ****END OF INPUT****

CARTESIAN COORDINATES (ANGSTROEM)
---------------------------------
  C     -5.099044   -1.341877    0.089652
  C     -3.613418   -1.583005   -0.039916
  C     -2.698405   -0.912947    0.795686
  C     -1.304722   -1.088674    0.660125
  C     -0.816217   -1.978619   -0.317835
  C     -1.717961   -2.668359   -1.144243
  C     -3.100807   -2.470692   -1.010652
  P     -0.223568   -0.108803    1.801441
  C     -0.122727    1.498934    0.884025
  C      0.481177    2.585773    1.553332
  C      0.609591    3.823427    0.906919
  C      0.122540    3.993188   -0.399679
  C     -0.493713    2.925430   -1.084434
  C     -0.607169    1.682954   -0.425729
  C     -0.991599    3.089650   -2.501462
  C      1.438637   -0.830798    1.418309
  C      1.820920   -1.983727    2.138321
  C      3.059706   -2.589797    1.884827
  C      3.932118   -2.043370    0.929252
  C      3.576477   -0.886723    0.204847
  C      2.322899   -0.293268    0.462721
  C      4.496070   -0.310175   -0.846111
  H     -5.417946   -0.479207   -0.535059
  H     -5.384856   -1.108890    1.134712
  H     -5.686659   -2.220706   -0.242489
  H     -3.079713   -0.229107    1.573137
  H      0.267553   -2.128493   -0.431530
  H     -1.335871   -3.368460   -1.903689
  H     -3.798320   -3.018523   -1.664479
  H      0.850298    2.456242    2.583443
  H      1.081644    4.669434    1.430372
  H      0.215490    4.972916   -0.895348
  H     -1.081555    0.838287   -0.949217
  H     -1.871232    2.445602   -2.700239
  H     -1.273350    4.139366   -2.717546
  H     -0.206830    2.803580   -3.235327
  H      1.142819   -2.402639    2.899153
  H      3.355778   -3.489232    2.446872
  H      4.909794   -2.517717    0.746693
  H      2.029564    0.609104   -0.096242
  H      5.558549   -0.539870   -0.630845
  H      4.267111   -0.730234   -1.849791
  H      4.386947    0.790024   -0.921976

 Total Charge           Charge          ....    0
 Multiplicity           Mult            ....    1
 Number of Electrons    NEL             ....  162
 Basis Dimension        Dim             ....  814

ORBITAL ENERGIES
----------------

  NO   OCC          E(Eh)            E(eV)
   0   2.0000     -78.027514     -2123.2366
   1   2.0000     -10.556322      -287.2521
   2   2.0000     -10.555672      -287.2344
   3   2.0000     -10.555243      -287.2228
   4   2.0000     -10.550750      -287.1005
   5   2.0000     -10.550719      -287.0997
   6   2.0000     -10.550372      -287.0902
   7   2.0000     -10.547684      -287.0171
   8   2.0000     -10.547250      -287.0053
   9   2.0000     -10.547153      -287.0026
  10   2.0000     -10.546145      -286.9752
  11   2.0000     -10.545883      -286.9681
  12   2.0000     -10.545882      -286.9680
  13   2.0000     -10.545775      -286.9651
  14   2.0000     -10.545726      -286.9638
  15   2.0000     -10.545400      -286.9549
  16   2.0000     -10.544090      -286.9193
  17   2.0000     -10.543544      -286.9044
  18   2.0000     -10.543309      -286.8980
  19   2.0000     -10.539780      -286.8020
  20   2.0000     -10.539061      -286.7824
  21   2.0000     -10.538576      -286.7692
  22   2.0000      -6.843560      -186.2227
  23   2.0000      -4.958186      -134.9191
  24   2.0000      -4.957772      -134.9078
  25   2.0000      -4.957758      -134.9074
  26   2.0000      -0.961498       -26.1637
  27   2.0000      -0.954248       -25.9664
  28   2.0000      -0.953959       -25.9586
  29   2.0000      -0.876595       -23.8534
  30   2.0000      -0.866287       -23.5729
  31   2.0000      -0.864337       -23.5198
  32   2.0000      -0.851750       -23.1773
  33   2.0000      -0.833816       -22.6893
  34   2.0000      -0.830626       -22.6025
  35   2.0000      -0.773186       -21.0395
  36   2.0000      -0.772685       -21.0258
  37   2.0000      -0.771571       -20.9955
  38   2.0000      -0.729072       -19.8391
  39   2.0000      -0.684104       -18.6154
  40   2.0000      -0.678784       -18.4706
  41   2.0000      -0.671277       -18.2664
  42   2.0000      -0.659028       -17.9331
  43   2.0000      -0.651854       -17.7379
  44   2.0000      -0.612221       -16.6594
  45   2.0000      -0.577117       -15.7042
  46   2.0000      -0.576089       -15.6762
  47   2.0000      -0.562221       -15.2988
  48   2.0000      -0.529770       -14.4158
  49   2.0000      -0.528951       -14.3935
  50   2.0000      -0.528517       -14.3817
  51   2.0000      -0.511686       -13.9237
  52   2.0000      -0.508400       -13.8343
  53   2.0000      -0.497994       -13.5511
  54   2.0000      -0.486872       -13.2485
  55   2.0000      -0.485841       -13.2204
  56   2.0000      -0.485705       -13.2167
  57   2.0000      -0.472768       -12.8647
  58   2.0000      -0.471618       -12.8334
  59   2.0000      -0.470218       -12.7953
  60   2.0000      -0.464664       -12.6442
  61   2.0000      -0.463455       -12.6112
  62   2.0000      -0.447774       -12.1845
  63   2.0000      -0.445995       -12.1361
  64   2.0000      -0.444005       -12.0820
  65   2.0000      -0.426421       -11.6035
  66   2.0000      -0.420753       -11.4493
  67   2.0000      -0.420486       -11.4420
  68   2.0000      -0.415317       -11.3014
  69   2.0000      -0.398299       -10.8383
  70   2.0000      -0.397321       -10.8117
  71   2.0000      -0.397101       -10.8057
  72   2.0000      -0.369599       -10.0573
  73   2.0000      -0.369124       -10.0444
  74   2.0000      -0.329050        -8.9539
  75   2.0000      -0.310200        -8.4410
  76   2.0000      -0.306788        -8.3481
  77   2.0000      -0.301056        -8.1921
  78   2.0000      -0.295617        -8.0441
  79   2.0000      -0.292769        -7.9667
  80   2.0000      -0.261949        -7.1280
  81   0.0000       0.001055         0.0287
  82   0.0000       0.001803         0.0491
  83   0.0000       0.003881         0.1056
  84   0.0000       0.018903         0.5144
  85   0.0000       0.026316         0.7161

MULLIKEN ATOMIC CHARGES
-----------------------
   0 C :   -0.476859
   1 C :    0.115799
   2 C :   -0.196689
   3 C :   -0.086210
   4 C :   -0.145331
   5 C :   -0.161943
   6 C :   -0.166708
   7 P :    0.122415
   8 C :   -0.088389
   9 C :   -0.168797
  10 C :   -0.141989
  11 C :   -0.164134
  12 C :    0.099107
  13 C :   -0.179940
  14 C :   -0.483896
  15 C :   -0.096129
  16 C :   -0.163298
  17 C :   -0.142500
  18 C :   -0.161590
  19 C :    0.097978
  20 C :   -0.175234
  21 C :   -0.485229
  22 H :    0.158816
  23 H :    0.150278
  24 H :    0.144996
  25 H :    0.158227
  26 H :    0.179591
  27 H :    0.143004
  28 H :    0.143133
  29 H :    0.152367
  30 H :    0.143354
  31 H :    0.141374
  32 H :    0.194105
  33 H :    0.151897
  34 H :    0.144512
  35 H :    0.158929
  36 H :    0.152345
  37 H :    0.142963
  38 H :    0.140956
  39 H :    0.192673
  40 H :    0.144379
  41 H :    0.158888
  42 H :    0.152780
Sum of atomic charges:   -0.0000000

LOEWDIN ATOMIC CHARGES
----------------------
   0 C :   -0.267445
   1 C :   -0.171180
   2 C :   -0.120001
   3 C :   -0.274885
   4 C :   -0.142483
   5 C :   -0.142595
   6 C :   -0.119374
   7 P :    0.701748
   8 C :   -0.274453
   9 C :   -0.148490
  10 C :   -0.143722
  11 C :   -0.119428
  12 C :   -0.170101
  13 C :   -0.113777
  14 C :   -0.267698
  15 C :   -0.275042
  16 C :   -0.148690
  17 C :   -0.143429
  18 C :   -0.118714
  19 C :   -0.169712
  20 C :   -0.112481
  21 C :   -0.267723
  22 H :    0.135011
  23 H :    0.132075
  24 H :    0.130468
  25 H :    0.152409
  26 H :    0.157069
  27 H :    0.147591
  28 H :    0.148302
  29 H :    0.149880
  30 H :    0.147630
  31 H :    0.148281
  32 H :    0.160152
  33 H :    0.132360
  34 H :    0.130208
  35 H :    0.134879
  36 H :    0.149740
  37 H :    0.147676
  38 H :    0.148346
  39 H :    0.159913
  40 H :    0.130283
  41 H :    0.134788
  42 H :    0.132612

  Mayer bond orders larger than 0.100000
B(  0-C ,  1-C ) :   0.9274 B(  0-C , 22-H ) :   0.9504 B(  0-C , 23-H ) :   0.9829
B(  0-C , 24-H ) :   0.9791 B(  1-C ,  2-C ) :   1.4138 B(  1-C ,  6-C ) :   1.3962
B(  2-C ,  3-C ) :   1.4301 B(  2-C , 25-H ) :   0.9111 B(  3-C ,  4-C ) :   1.3484
B(  3-C ,  7-P ) :   0.9305 B(  4-C ,  5-C ) :   1.4580 B(  4-C , 26-H ) :   0.9239
B(  5-C ,  6-C ) :   1.4563 B(  5-C , 27-H ) :   0.9476 B(  6-C , 28-H ) :   0.9364
B(  7-P ,  8-C ) :   0.9370 B(  7-P , 15-C ) :   0.9331 B(  8-C ,  9-C ) :   1.4059
B(  8-C , 13-C ) :   1.3724 B(  9-C , 10-C ) :   1.4615 B(  9-C , 29-H ) :   0.9343
B( 10-C , 11-C ) :   1.4434 B( 10-C , 30-H ) :   0.9507 B( 11-C , 12-C ) :   1.4143
B( 11-C , 31-H ) :   0.9362 B( 12-C , 13-C ) :   1.4017 B( 12-C , 14-C ) :   0.9235
B( 13-C , 32-H ) :   0.9015 B( 14-C , 33-H ) :   0.9875 B( 14-C , 34-H ) :   0.9775
B( 14-C , 35-H ) :   0.9497 B( 15-C , 16-C ) :   1.4021 B( 15-C , 20-C ) :   1.3710
B( 16-C , 17-C ) :   1.4599 B( 16-C , 36-H ) :   0.9339 B( 17-C , 18-C ) :   1.4439
B( 17-C , 37-H ) :   0.9510 B( 18-C , 19-C ) :   1.4135 B( 18-C , 38-H ) :   0.9361
B( 19-C , 20-C ) :   1.4050 B( 19-C , 21-C ) :   0.9231 B( 20-C , 39-H ) :   0.9011
B( 21-C , 40-H ) :   0.9773 B( 21-C , 41-H ) :   0.9497 B( 21-C , 42-H ) :   0.9879

Dispersion correction           -0.003044449
FINAL SINGLE POINT ENERGY     -1154.173120282421

DIPOLE MOMENT
-------------

Method             : SCF
Type of density    : Electron Density
Multiplicity       :   1
Irrep              :   0
Energy             : -1154.1700758330346162 Eh
Relativity type    :
Basis              : AO
                                X                 Y                 Z
Electronic contribution:      1.322183394      -2.564375797      12.570921178
Nuclear contribution   :     -1.270892615       2.638050320     -13.363307850
                        -----------------------------------------
Total Dipole Moment    :      0.051290779       0.073674523      -0.792386673
                        -----------------------------------------
Magnitude (a.u.)       :      0.797455527
Magnitude (Debye)      :      2.026970865

Rotational constants in cm-1:             0.009530             0.007476             0.005198
Rotational constants in MHz :           285.716501           224.123198           155.823870

                             ****ORCA TERMINATED NORMALLY****
TOTAL RUN TIME: 0 days 0 hours 2 minutes 44 seconds 453 msec
