                         Program Version 6.0.0  -   RELEASE   -
|  1> ! RIJCOSX M062X def2-TZVP D3ZERO NormalSCF
|  2> %pal
|  3> nprocs 6
|  4> end
|  5>
|  6> * xyz 0 1
|  7>   C           3.50839188115713     -1.01304539557273      3.53298055402019
|  8>   C           2.67820085895223     -1.22836600276427      2.27705989439909
|  9>   O           2.46860699422191      0.02527444489556      1.63036779474035
| 10>   Si          1.59618222138388      0.18503641222562      0.20219287887330
| 11>   C          -0.13865459396593     -0.48559347577488      0.31249397202782
| 12>   C          -0.89825886979282      0.16482126388084      1.48231490819440
| 13>   P          -2.77203912591751      0.25576350370426      1.36010293685304
| 14>   C          -3.11325261349502     -1.44307602776386      0.69842374151883
| 15>   C          -3.13329237602282     -1.77435644320888     -0.67337665031593
| 16>   C          -3.34349523358875     -3.10129808583385     -1.08175328709285
| 17>   C          -3.52987605915252     -4.11585097049410     -0.12748135994502
| 18>   C          -3.51453480127331     -3.79616538635899      1.24100862625340
| 19>   C          -3.31733742597755     -2.46754573007442      1.64929708068680
| 20>   C          -2.99564345775267      1.29522872211075     -0.15138333893577
| 21>   C          -4.29736585170856      1.36660934183699     -0.70277534333874
| 22>   C          -4.56865393658991      2.18739577314980     -1.80618071604869
| 23>   C          -3.54581086793108      2.96952037247413     -2.37231874228363
| 24>   C          -2.25456415549874      2.91815245385844     -1.82518524398019
| 25>   C          -1.97637196123264      2.08873059210804     -0.72435612416716
| 26>   O           2.34980261685821     -0.58155127719925     -1.07330118994886
| 27>   C           3.64443386210558     -0.23668132526392     -1.56825654746183
| 28>   C           4.01274457662033     -1.17876349108076     -2.70406378975745
| 29>   O           1.51522067555708      1.83770396781828     -0.04601153563717
| 30>   C           2.10160664985117      2.85266423421132      0.77173491548675
| 31>   C           3.59338096621232      3.01527121545331      0.50714779956711
| 32>   H           4.49215905059021     -0.57016015496528      3.27748750303876
| 33>   H           3.68210828622755     -1.97316756223308      4.06018943745605
| 34>   H           2.99017665360436     -0.32021222335852      4.22618068584895
| 35>   H           1.69928146726861     -1.69592841296815      2.54100468952971
| 36>   H           3.19443644019108     -1.93682723741113      1.58743226115950
| 37>   H          -0.15284729580143     -1.59133630846302      0.39262246547584
| 38>   H          -0.62165657623438     -0.25601222967857     -0.66141752988879
| 39>   H          -0.68084647985187     -0.36112605123746      2.43497602201149
| 40>   H          -0.57781184999465      1.21615204200536      1.65221322115640
| 41>   H          -2.98523125572986     -0.98578850678895     -1.42637517428270
| 42>   H          -3.35648380851587     -3.34543397313273     -2.15549847274909
| 43>   H          -3.69388438617434     -5.15544467260350     -0.45054584307498
| 44>   H          -3.66933913685967     -4.58411879094371      1.99447103033800
| 45>   H          -3.32448534111255     -2.21476825645863      2.72254254069418
| 46>   H          -5.10725730309198      0.76327185596487     -0.26107379943883
| 47>   H          -5.58695629203614      2.22185646524905     -2.22375025213759
| 48>   H          -3.75761618634090      3.61751283117447     -3.23665893602890
| 49>   H          -1.44378587530194      3.52257017113511     -2.26071149720677
| 50>   H          -0.94633132012108      2.06376258280211     -0.33836564356275
| 51>   H           4.39919908706823     -0.30205376124217     -0.74972739969433
| 52>   H           3.64341515450131      0.81964078188024     -1.92287678352169
| 53>   H           4.03089653786402     -2.22939393274978     -2.35037140996767
| 54>   H           5.01281503718870     -0.92833482024344     -3.11308239803909
| 55>   H           3.26971170033818     -1.10634296812873     -3.52355265645407
| 56>   H           1.56036521100178      3.79551086475608      0.54135570048142
| 57>   H           1.93292608011049      2.62393673469713      1.84782192145244
| 58>   H           3.78298336503111      3.22565397641512     -0.56514970427937
| 59>   H           4.13769172951884      2.09209272127375      0.79061315160397
| 60>   H           4.00694733364214      3.85461014891608      1.10397663637211
| 61> **                         ****END OF INPUT****

CARTESIAN COORDINATES (ANGSTROEM)
---------------------------------
  C      3.508392   -1.013045    3.532981
  C      2.678201   -1.228366    2.277060
  O      2.468607    0.025274    1.630368
  Si     1.596182    0.185036    0.202193
  C     -0.138655   -0.485593    0.312494
  C     -0.898259    0.164821    1.482315
  P     -2.772039    0.255764    1.360103
  C     -3.113253   -1.443076    0.698424
  C     -3.133292   -1.774356   -0.673377
  C     -3.343495   -3.101298   -1.081753
  C     -3.529876   -4.115851   -0.127481
  C     -3.514535   -3.796165    1.241009
  C     -3.317337   -2.467546    1.649297
  C     -2.995643    1.295229   -0.151383
  C     -4.297366    1.366609   -0.702775
  C     -4.568654    2.187396   -1.806181
  C     -3.545811    2.969520   -2.372319
  C     -2.254564    2.918152   -1.825185
  C     -1.976372    2.088731   -0.724356
  O      2.349803   -0.581551   -1.073301
  C      3.644434   -0.236681   -1.568257
  C      4.012745   -1.178763   -2.704064
  O      1.515221    1.837704   -0.046012
  C      2.101607    2.852664    0.771735
  C      3.593381    3.015271    0.507148
  H      4.492159   -0.570160    3.277488
  H      3.682108   -1.973168    4.060189
  H      2.990177   -0.320212    4.226181
  H      1.699281   -1.695928    2.541005
  H      3.194436   -1.936827    1.587432
  H     -0.152847   -1.591336    0.392622
  H     -0.621657   -0.256012   -0.661418
  H     -0.680846   -0.361126    2.434976
  H     -0.577812    1.216152    1.652213
  H     -2.985231   -0.985789   -1.426375
  H     -3.356484   -3.345434   -2.155498
  H     -3.693884   -5.155445   -0.450546
  H     -3.669339   -4.584119    1.994471
  H     -3.324485   -2.214768    2.722543
  H     -5.107257    0.763272   -0.261074
  H     -5.586956    2.221856   -2.223750
  H     -3.757616    3.617513   -3.236659
  H     -1.443786    3.522570   -2.260711
  H     -0.946331    2.063763   -0.338366
  H      4.399199   -0.302054   -0.749727
  H      3.643415    0.819641   -1.922877
  H      4.030897   -2.229394   -2.350371
  H      5.012815   -0.928335   -3.113082
  H      3.269712   -1.106343   -3.523553
  H      1.560365    3.795511    0.541356
  H      1.932926    2.623937    1.847822
  H      3.782983    3.225654   -0.565150
  H      4.137692    2.092093    0.790613
  H      4.006947    3.854610    1.103977

 Total Charge           Charge          ....    0
 Multiplicity           Mult            ....    1
 Number of Electrons    NEL             ....  202
 Basis Dimension        Dim             ....  961

ORBITAL ENERGIES
----------------

  NO   OCC          E(Eh)            E(eV)
   0   2.0000     -78.024180     -2123.1459
   1   2.0000     -67.048624     -1824.4858
   2   2.0000     -19.622901      -533.9663
   3   2.0000     -19.619575      -533.8758
   4   2.0000     -19.619335      -533.8692
   5   2.0000     -10.596762      -288.3526
   6   2.0000     -10.591589      -288.2118
   7   2.0000     -10.590958      -288.1946
   8   2.0000     -10.551330      -287.1163
   9   2.0000     -10.551040      -287.1084
  10   2.0000     -10.549830      -287.0755
  11   2.0000     -10.549292      -287.0608
  12   2.0000     -10.548867      -287.0493
  13   2.0000     -10.548464      -287.0383
  14   2.0000     -10.547880      -287.0224
  15   2.0000     -10.547180      -287.0033
  16   2.0000     -10.547044      -286.9997
  17   2.0000     -10.546400      -286.9821
  18   2.0000     -10.545814      -286.9662
  19   2.0000     -10.545357      -286.9537
  20   2.0000     -10.544713      -286.9362
  21   2.0000     -10.534465      -286.6574
  22   2.0000     -10.530507      -286.5497
  23   2.0000     -10.529975      -286.5352
  24   2.0000     -10.524518      -286.3867
  25   2.0000      -6.840282      -186.1335
  26   2.0000      -5.578047      -151.7864
  27   2.0000      -4.954882      -134.8292
  28   2.0000      -4.954516      -134.8192
  29   2.0000      -4.954347      -134.8146
  30   2.0000      -3.890533      -105.8668
  31   2.0000      -3.890030      -105.8531
  32   2.0000      -3.888096      -105.8005
  33   2.0000      -1.144163       -31.1343
  34   2.0000      -1.119064       -30.4513
  35   2.0000      -1.116875       -30.3917
  36   2.0000      -0.955694       -26.0057
  37   2.0000      -0.949353       -25.8332
  38   2.0000      -0.873665       -23.7736
  39   2.0000      -0.849622       -23.1194
  40   2.0000      -0.843075       -22.9412
  41   2.0000      -0.839502       -22.8440
  42   2.0000      -0.838570       -22.8187
  43   2.0000      -0.837677       -22.7944
  44   2.0000      -0.832171       -22.6445
  45   2.0000      -0.831177       -22.6175
  46   2.0000      -0.737256       -20.0618
  47   2.0000      -0.709483       -19.3060
  48   2.0000      -0.699789       -19.0422
  49   2.0000      -0.698510       -19.0074
  50   2.0000      -0.689344       -18.7580
  51   2.0000      -0.682372       -18.5683
  52   2.0000      -0.678636       -18.4666
  53   2.0000      -0.672518       -18.3002
  54   2.0000      -0.624214       -16.9857
  55   2.0000      -0.609646       -16.5893
  56   2.0000      -0.586550       -15.9608
  57   2.0000      -0.571093       -15.5402
  58   2.0000      -0.566677       -15.4201
  59   2.0000      -0.562104       -15.2956
  60   2.0000      -0.548582       -14.9277
  61   2.0000      -0.538036       -14.6407
  62   2.0000      -0.536061       -14.5870
  63   2.0000      -0.523224       -14.2376
  64   2.0000      -0.519917       -14.1477
  65   2.0000      -0.514683       -14.0052
  66   2.0000      -0.510384       -13.8883
  67   2.0000      -0.506691       -13.7878
  68   2.0000      -0.498589       -13.5673
  69   2.0000      -0.487205       -13.2575
  70   2.0000      -0.484455       -13.1827
  71   2.0000      -0.482670       -13.1341
  72   2.0000      -0.479346       -13.0437
  73   2.0000      -0.465789       -12.6748
  74   2.0000      -0.465133       -12.6569
  75   2.0000      -0.453351       -12.3363
  76   2.0000      -0.448962       -12.2169
  77   2.0000      -0.446112       -12.1393
  78   2.0000      -0.440579       -11.9888
  79   2.0000      -0.438496       -11.9321
  80   2.0000      -0.436571       -11.8797
  81   2.0000      -0.434401       -11.8206
  82   2.0000      -0.432795       -11.7770
  83   2.0000      -0.430319       -11.7096
  84   2.0000      -0.420618       -11.4456
  85   2.0000      -0.410220       -11.1627
  86   2.0000      -0.400982       -10.9113
  87   2.0000      -0.400412       -10.8958
  88   2.0000      -0.394442       -10.7333
  89   2.0000      -0.382453       -10.4071
  90   2.0000      -0.372267       -10.1299
  91   2.0000      -0.368797       -10.0355
  92   2.0000      -0.362936        -9.8760
  93   2.0000      -0.360747        -9.8164
  94   2.0000      -0.352053        -9.5799
  95   2.0000      -0.343122        -9.3368
  96   2.0000      -0.322795        -8.7837
  97   2.0000      -0.310071        -8.4375
  98   2.0000      -0.306496        -8.3402
  99   2.0000      -0.303168        -8.2496
 100   2.0000      -0.261222        -7.1082
 101   0.0000       0.003046         0.0829
 102   0.0000       0.009277         0.2524
 103   0.0000       0.013700         0.3728
 104   0.0000       0.025029         0.6811
 105   0.0000       0.048774         1.3272

MULLIKEN ATOMIC CHARGES
-----------------------
   0 C :   -0.404901
   1 C :   -0.116510
   2 O :   -0.363570
   3 Si:    0.748913
   4 C :   -0.540026
   5 C :   -0.411590
   6 P :    0.173978
   7 C :   -0.054219
   8 C :   -0.177443
   9 C :   -0.163164
  10 C :   -0.138383
  11 C :   -0.154286
  12 C :   -0.153323
  13 C :   -0.045817
  14 C :   -0.200505
  15 C :   -0.142050
  16 C :   -0.136183
  17 C :   -0.195806
  18 C :   -0.118310
  19 O :   -0.366036
  20 C :   -0.108819
  21 C :   -0.404789
  22 O :   -0.401865
  23 C :   -0.075001
  24 C :   -0.440464
  25 H :    0.139824
  26 H :    0.134567
  27 H :    0.141448
  28 H :    0.128018
  29 H :    0.135166
  30 H :    0.198149
  31 H :    0.206262
  32 H :    0.179592
  33 H :    0.191382
  34 H :    0.194307
  35 H :    0.145446
  36 H :    0.144437
  37 H :    0.143418
  38 H :    0.152296
  39 H :    0.166981
  40 H :    0.145236
  41 H :    0.143360
  42 H :    0.143699
  43 H :    0.171830
  44 H :    0.127281
  45 H :    0.133144
  46 H :    0.138474
  47 H :    0.131865
  48 H :    0.143591
  49 H :    0.130149
  50 H :    0.141209
  51 H :    0.143816
  52 H :    0.152748
  53 H :    0.142476
Sum of atomic charges:   -0.0000000

LOEWDIN ATOMIC CHARGES
----------------------
   0 C :   -0.321213
   1 C :   -0.357465
   2 O :    0.079606
   3 Si:   -0.026919
   4 C :   -0.368456
   5 C :   -0.423215
   6 P :    0.650383
   7 C :   -0.275847
   8 C :   -0.138700
   9 C :   -0.142822
  10 C :   -0.143051
  11 C :   -0.146167
  12 C :   -0.148254
  13 C :   -0.282669
  14 C :   -0.144469
  15 C :   -0.146569
  16 C :   -0.145272
  17 C :   -0.142444
  18 C :   -0.143687
  19 O :    0.084121
  20 C :   -0.356037
  21 C :   -0.320783
  22 O :    0.080833
  23 C :   -0.355339
  24 C :   -0.327197
  25 H :    0.124603
  26 H :    0.125939
  27 H :    0.125326
  28 H :    0.122788
  29 H :    0.124956
  30 H :    0.153826
  31 H :    0.160165
  32 H :    0.139127
  33 H :    0.143859
  34 H :    0.155931
  35 H :    0.147760
  36 H :    0.146573
  37 H :    0.146900
  38 H :    0.148009
  39 H :    0.152342
  40 H :    0.147253
  41 H :    0.146185
  42 H :    0.148192
  43 H :    0.154251
  44 H :    0.122243
  45 H :    0.124739
  46 H :    0.124316
  47 H :    0.124971
  48 H :    0.126090
  49 H :    0.125400
  50 H :    0.125144
  51 H :    0.122935
  52 H :    0.124374
  53 H :    0.127439

  Mayer bond orders larger than 0.100000
B(  0-C ,  1-C ) :   0.9714 B(  0-C , 25-H ) :   0.9719 B(  0-C , 26-H ) :   0.9688
B(  0-C , 27-H ) :   0.9706 B(  1-C ,  2-O ) :   0.9085 B(  1-C , 28-H ) :   0.9672
B(  1-C , 29-H ) :   0.9676 B(  2-O ,  3-Si) :   1.0905 B(  3-Si,  4-C ) :   1.0360
B(  3-Si, 19-O ) :   1.2080 B(  3-Si, 22-O ) :   1.1103 B(  4-C ,  5-C ) :   0.8060
B(  4-C , 30-H ) :   0.9354 B(  4-C , 31-H ) :   0.9407 B(  5-C ,  6-P ) :   0.9566
B(  5-C , 32-H ) :   0.9551 B(  5-C , 33-H ) :   0.9564 B(  6-P ,  7-C ) :   0.9525
B(  6-P , 13-C ) :   0.9677 B(  7-C ,  8-C ) :   1.2986 B(  7-C , 12-C ) :   1.4108
B(  8-C ,  9-C ) :   1.4829 B(  8-C , 34-H ) :   0.9311 B(  9-C , 10-C ) :   1.4392
B(  9-C , 35-H ) :   0.9419 B( 10-C , 11-C ) :   1.4384 B( 10-C , 36-H ) :   0.9475
B( 11-C , 12-C ) :   1.4650 B( 11-C , 37-H ) :   0.9482 B( 12-C , 38-H ) :   0.9280
B( 13-C , 14-C ) :   1.3395 B( 13-C , 18-C ) :   1.3062 B( 14-C , 15-C ) :   1.4696
B( 14-C , 39-H ) :   0.9444 B( 15-C , 16-C ) :   1.4218 B( 15-C , 40-H ) :   0.9457
B( 16-C , 17-C ) :   1.4520 B( 16-C , 41-H ) :   0.9499 B( 17-C , 18-C ) :   1.4914
B( 17-C , 42-H ) :   0.9445 B( 18-C , 43-H ) :   0.9234 B( 19-O , 20-C ) :   0.8858
B( 20-C , 21-C ) :   0.9852 B( 20-C , 44-H ) :   0.9642 B( 20-C , 45-H ) :   0.9594
B( 21-C , 46-H ) :   0.9744 B( 21-C , 47-H ) :   0.9688 B( 21-C , 48-H ) :   0.9720
B( 22-O , 23-C ) :   0.8788 B( 23-C , 24-C ) :   0.9471 B( 23-C , 49-H ) :   0.9611
B( 23-C , 50-H ) :   0.9783 B( 24-C , 51-H ) :   0.9710 B( 24-C , 52-H ) :   0.9640
B( 24-C , 53-H ) :   0.9675

Dispersion correction           -0.004378110
FINAL SINGLE POINT ENERGY     -1636.189533396145

DIPOLE MOMENT
-------------

Method             : SCF
Type of density    : Electron Density
Multiplicity       :   1
Irrep              :   0
Energy             : -1636.1851552860091488 Eh
Relativity type    :
Basis              : AO
                                X                 Y                 Z
Electronic contribution:    -28.950254903       0.326947325       0.628258677
Nuclear contribution   :     29.784923166      -0.679700548      -0.655255563
                        -----------------------------------------
Total Dipole Moment    :      0.834668263      -0.352753224      -0.026996886
                        -----------------------------------------
Magnitude (a.u.)       :      0.906551034
Magnitude (Debye)      :      2.304269606

Rotational constants in cm-1:             0.007401             0.004223             0.003468
Rotational constants in MHz :           221.876560           126.604441           103.958810

                             ****ORCA TERMINATED NORMALLY****
TOTAL RUN TIME: 0 days 0 hours 3 minutes 37 seconds 896 msec
