                         Program Version 6.0.0  -   RELEASE   -
|  1> ! RIJONX B3LYP def2-SVP D3BJ TIGHTSCF Opt
|  2> %pal
|  3> nprocs 6
|  4> end
|  5>
|  6> * xyz 0 1
|  7> C      3.939771   -1.242537   -0.465123
|  8> C      2.635732   -1.328774    0.314423
|  9> C      1.900392    0.013441    0.314691
| 10> P      0.349145   -0.034553    1.322572
| 11> C     -0.437501    1.584132    0.991036
| 12> C     -1.831938    1.719274    1.109529
| 13> C     -2.463907    2.945284    0.882291
| 14> C     -1.710314    4.065279    0.547186
| 15> C     -0.326246    3.959755    0.448134
| 16> C      0.304532    2.731545    0.675138
| 17> C     -0.686293   -1.167693    0.332886
| 18> C     -1.171843   -2.336732    0.937522
| 19> C     -1.960639   -3.238826    0.218923
| 20> C     -2.274163   -2.983780   -1.113781
| 21> C     -1.799997   -1.827427   -1.728262
| 22> C     -1.010438   -0.925680   -1.010098
| 23> H      4.451477   -2.210019   -0.455465
| 24> H      3.755255   -0.966180   -1.508163
| 25> H      4.611766   -0.498725   -0.025273
| 26> H      2.856560   -1.643175    1.341980
| 27> H      2.013083   -2.112785   -0.132150
| 28> H      1.687190    0.320903   -0.715106
| 29> H      2.566405    0.768718    0.747088
| 30> H     -2.448485    0.864102    1.381277
| 31> H     -3.544228    3.021265    0.972666
| 32> H     -2.199377    5.019787    0.373002
| 33> H      0.268210    4.835467    0.200630
| 34> H      1.387841    2.700036    0.607418
| 35> H     -0.939579   -2.557266    1.977489
| 36> H     -2.329283   -4.139864    0.702000
| 37> H     -2.888578   -3.684685   -1.672528
| 38> H     -2.045510   -1.623368   -2.767132
| 39> H     -0.659043   -0.026920   -1.511905
| 40> **                         ****END OF INPUT****
 Total Charge           Charge          ....    0
 Multiplicity           Mult            ....    1
 Number of Electrons    NEL             ....  122
Dispersion correction           -0.073405414
FINAL SINGLE POINT ENERGY      -922.306680856895
Dispersion correction             ... done (  0.1 sec)
Dispersion correction           -0.073656229
FINAL SINGLE POINT ENERGY      -922.308757243768
Dispersion correction             ... done (  0.1 sec)
Dispersion correction           -0.073727414
FINAL SINGLE POINT ENERGY      -922.309166342761
Dispersion correction             ... done (  0.1 sec)
FINAL SINGLE POINT ENERGY      -922.309257826068
FINAL SINGLE POINT ENERGY      -922.309285290179
FINAL SINGLE POINT ENERGY      -922.309300432957
FINAL SINGLE POINT ENERGY      -922.309315769339
FINAL SINGLE POINT ENERGY      -922.309330964792
FINAL SINGLE POINT ENERGY      -922.309332213625
FINAL SINGLE POINT ENERGY      -922.309336799903
FINAL SINGLE POINT ENERGY      -922.309333874110
FINAL SINGLE POINT ENERGY      -922.309337452957
FINAL SINGLE POINT ENERGY      -922.309332248121
Dispersion correction             ... done (  0.1 sec)
Dispersion correction           -0.073589542
FINAL SINGLE POINT ENERGY      -922.309338016418
Dispersion correction             ... done (  0.1 sec)
Dispersion correction           -0.073599034
FINAL SINGLE POINT ENERGY      -922.309337722414
Dispersion correction             ... done (  0.1 sec)
                    ***********************HURRAY********************

CARTESIAN COORDINATES (ANGSTROEM)
---------------------------------
  C      3.909921   -1.329857   -0.345481
  C      2.593996   -1.351247    0.432648
  C      1.878255    0.002371    0.420566
  P      0.295344   -0.025469    1.417088
  C     -0.455444    1.605197    0.982921
  C     -1.809023    1.807535    1.313592
  C     -2.434480    3.028028    1.061950
  C     -1.714251    4.081923    0.487142
  C     -0.368281    3.899057    0.165832
  C      0.256534    2.670265    0.409012
  C     -0.716586   -1.146386    0.341824
  C     -1.015799   -2.432061    0.817912
  C     -1.736709   -3.335711    0.029797
  C     -2.173936   -2.958250   -1.241963
  C     -1.887182   -1.675600   -1.724061
  C     -1.163925   -0.776835   -0.938300
  H      4.405409   -2.313927   -0.324888
  H      3.742836   -1.061347   -1.402136
  H      4.612973   -0.591674    0.075975
  H      2.781764   -1.655649    1.477533
  H      1.926379   -2.120373    0.007837
  H      1.666666    0.316486   -0.616462
  H      2.530134    0.771667    0.869857
  H     -2.380359    0.991517    1.765748
  H     -3.488895    3.160498    1.318600
  H     -2.201794    5.040647    0.293226
  H      0.203689    4.715599   -0.283050
  H      1.307900    2.552180    0.141521
  H     -0.680674   -2.724471    1.817066
  H     -1.961527   -4.334363    0.413493
  H     -2.741962   -3.660510   -1.857655
  H     -2.231245   -1.375165   -2.717412
  H     -0.949730    0.225925   -1.316836

 Multiplicity           Mult            ....    1
 Number of Electrons    NEL             ....  122
 Basis Dimension        Dim             ....  313

ORBITAL ENERGIES
----------------

  NO   OCC          E(Eh)            E(eV)
   0   2.0000     -77.044316     -2096.4824
   1   2.0000     -10.191702      -277.3303
   2   2.0000     -10.190992      -277.3110
   3   2.0000     -10.190416      -277.2953
   4   2.0000     -10.190266      -277.2912
   5   2.0000     -10.190081      -277.2862
   6   2.0000     -10.190026      -277.2847
   7   2.0000     -10.189377      -277.2670
   8   2.0000     -10.189298      -277.2649
   9   2.0000     -10.188769      -277.2505
  10   2.0000     -10.188430      -277.2413
  11   2.0000     -10.188024      -277.2302
  12   2.0000     -10.187731      -277.2223
  13   2.0000     -10.184330      -277.1297
  14   2.0000     -10.183126      -277.0969
  15   2.0000     -10.176352      -276.9126
  16   2.0000      -6.540793      -177.9840
  17   2.0000      -4.706381      -128.0671
  18   2.0000      -4.706016      -128.0572
  19   2.0000      -4.703209      -127.9808
  20   2.0000      -0.848292       -23.0832
  21   2.0000      -0.842292       -22.9199
  22   2.0000      -0.782700       -21.2984
  23   2.0000      -0.751084       -20.4380
  24   2.0000      -0.736952       -20.0535
  25   2.0000      -0.735274       -20.0078
  26   2.0000      -0.731177       -19.8963
  27   2.0000      -0.684226       -18.6187
  28   2.0000      -0.622923       -16.9506
  29   2.0000      -0.599427       -16.3112
  30   2.0000      -0.597547       -16.2601
  31   2.0000      -0.588474       -16.0132
  32   2.0000      -0.577347       -15.7104
  33   2.0000      -0.545623       -14.8471
  34   2.0000      -0.512915       -13.9571
  35   2.0000      -0.495435       -13.4815
  36   2.0000      -0.462565       -12.5870
  37   2.0000      -0.452940       -12.3251
  38   2.0000      -0.452104       -12.3024
  39   2.0000      -0.445898       -12.1335
  40   2.0000      -0.440776       -11.9941
  41   2.0000      -0.421317       -11.4646
  42   2.0000      -0.420173       -11.4335
  43   2.0000      -0.413864       -11.2618
  44   2.0000      -0.411774       -11.2050
  45   2.0000      -0.399686       -10.8760
  46   2.0000      -0.384664       -10.4672
  47   2.0000      -0.370142       -10.0721
  48   2.0000      -0.366895        -9.9837
  49   2.0000      -0.363111        -9.8807
  50   2.0000      -0.344861        -9.3841
  51   2.0000      -0.344722        -9.3804
  52   2.0000      -0.340069        -9.2537
  53   2.0000      -0.330192        -8.9850
  54   2.0000      -0.317561        -8.6413
  55   2.0000      -0.311488        -8.4760
  56   2.0000      -0.268409        -7.3038
  57   2.0000      -0.257136        -6.9970
  58   2.0000      -0.255901        -6.9634
  59   2.0000      -0.251796        -6.8517
  60   2.0000      -0.215856        -5.8737
  61   0.0000      -0.022258        -0.6057
  62   0.0000      -0.015053        -0.4096
  63   0.0000      -0.013047        -0.3550
  64   0.0000      -0.002473        -0.0673
  65   0.0000       0.055588         1.5126

MULLIKEN ATOMIC CHARGES
-----------------------
   0 C :    0.012680
   1 C :    0.016167
   2 C :   -0.168218
   3 P :    0.279998
   4 C :   -0.130116
   5 C :    0.019887
   6 C :    0.020040
   7 C :    0.020295
   8 C :    0.027368
   9 C :   -0.009744
  10 C :   -0.153997
  11 C :    0.021793
  12 C :    0.018602
  13 C :    0.023768
  14 C :    0.024451
  15 C :    0.031686
  16 H :    0.011608
  17 H :    0.006808
  18 H :    0.005611
  19 H :    0.006704
  20 H :    0.017696
  21 H :    0.026912
  22 H :    0.039910
  23 H :   -0.016605
  24 H :   -0.016832
  25 H :   -0.017534
  26 H :   -0.020273
  27 H :   -0.023592
  28 H :   -0.019954
  29 H :   -0.016090
  30 H :   -0.015169
  31 H :   -0.017635
  32 H :   -0.006224
Sum of atomic charges:   -0.0000000

LOEWDIN ATOMIC CHARGES
----------------------
   0 C :   -0.055032
   1 C :   -0.046217
   2 C :   -0.172369
   3 P :    0.496356
   4 C :   -0.172699
   5 C :   -0.027985
   6 C :   -0.024035
   7 C :   -0.027799
   8 C :   -0.024991
   9 C :   -0.042419
  10 C :   -0.173369
  11 C :   -0.031968
  12 C :   -0.027300
  13 C :   -0.021160
  14 C :   -0.025715
  15 C :   -0.023439
  16 H :    0.023531
  17 H :    0.020871
  18 H :    0.019802
  19 H :    0.019691
  20 H :    0.022765
  21 H :    0.015226
  22 H :    0.020132
  23 H :    0.025041
  24 H :    0.027160
  25 H :    0.026159
  26 H :    0.026111
  27 H :    0.022491
  28 H :    0.022919
  29 H :    0.027115
  30 H :    0.026954
  31 H :    0.026927
  32 H :    0.027248

  Mayer bond orders larger than 0.100000
B(  0-C ,  1-C ) :   1.1081 B(  0-C , 16-H ) :   0.9661 B(  0-C , 17-H ) :   0.9696
B(  0-C , 18-H ) :   0.9708 B(  1-C ,  2-C ) :   1.0568 B(  1-C , 19-H ) :   0.9405
B(  1-C , 20-H ) :   0.9432 B(  2-C ,  3-P ) :   0.9806 B(  2-C , 21-H ) :   0.9257
B(  2-C , 22-H ) :   0.9349 B(  3-P ,  4-C ) :   0.9133 B(  3-P , 10-C ) :   0.9300
B(  4-C ,  5-C ) :   1.3662 B(  4-C ,  9-C ) :   1.3880 B(  5-C ,  6-C ) :   1.4221
B(  5-C , 23-H ) :   0.9805 B(  6-C ,  7-C ) :   1.3664 B(  6-C , 24-H ) :   0.9844
B(  7-C ,  8-C ) :   1.3939 B(  7-C , 25-H ) :   0.9845 B(  8-C ,  9-C ) :   1.3814
B(  8-C , 26-H ) :   0.9817 B(  9-C , 27-H ) :   0.9793 B( 10-C , 11-C ) :   1.3866
B( 10-C , 15-C ) :   1.3695 B( 11-C , 12-C ) :   1.3793 B( 11-C , 28-H ) :   0.9848
B( 12-C , 13-C ) :   1.3921 B( 12-C , 29-H ) :   0.9856 B( 13-C , 14-C ) :   1.3687
B( 13-C , 30-H ) :   0.9845 B( 14-C , 15-C ) :   1.4036 B( 14-C , 31-H ) :   0.9837
B( 15-C , 32-H ) :   0.9762

Dispersion correction           -0.073598617
FINAL SINGLE POINT ENERGY      -922.309337836872

DIPOLE MOMENT
-------------

Method             : SCF
Type of density    : Electron Density
Multiplicity       :   1
Irrep              :   0
Energy             :  -922.2357392200269715 Eh
Relativity type    :
Basis              : AO
                                X                 Y                 Z
Electronic contribution:    -10.255908134       3.342797046       5.712162252
Nuclear contribution   :     10.250991014      -3.377870038      -6.208689375
                        -----------------------------------------
Total Dipole Moment    :     -0.004917120      -0.035072992      -0.496527123
                        -----------------------------------------
Magnitude (a.u.)       :      0.497788586
Magnitude (Debye)      :      1.265278033

Rotational constants in cm-1:             0.019345             0.012101             0.008646
Rotational constants in MHz :           579.945534           362.785210           259.210715

                             ****ORCA TERMINATED NORMALLY****
TOTAL RUN TIME: 0 days 0 hours 9 minutes 10 seconds 725 msec
