                         Program Version 6.0.0  -   RELEASE   -
|  1> ! RIJCOSX M062X def2-TZVP D3ZERO NormalSCF
|  2> %pal
|  3> nprocs 6
|  4> end
|  5>
|  6> * xyz 0 1
|  7>   C          -1.02984884886445     -2.80350672950244      0.05656261008235
|  8>   C           0.19196959644090     -1.90910459013631     -0.23206011322893
|  9>   C           0.31373378695584     -1.63165623799214     -1.73643499674581
| 10>   C           1.47737933520316     -2.55833859075860      0.31567079480256
| 11>   P          -0.07561552533986     -0.36890389277955      0.81835556172019
| 12>   O          -0.25413704251445     -0.74494434151282      2.28544409486042
| 13>   C           1.37058261953965      0.74205850553489      0.59781024814283
| 14>   C           1.80842894930859      1.30837032187505     -0.61832374228241
| 15>   C           2.94147409048454      2.13686323646412     -0.64297569704757
| 16>   C           3.64585892188978      2.40593972479585      0.54300634731694
| 17>   C           3.21318590642137      1.84590282268770      1.75657635057800
| 18>   C           2.08057592382395      1.01779026992300      1.78548798302016
| 19>   C          -1.56531103864308      0.49202357866196      0.17480495403906
| 20>   C          -1.66063650169455      1.15672586740079     -1.06553608540662
| 21>   C          -2.86923640401237      1.75743897169863     -1.45202543641200
| 22>   C          -3.98895137381392      1.69982790207484     -0.60452492161058
| 23>   C          -3.89574090512410      1.04716197489254      0.63614983081827
| 24>   C          -2.68855162222189      0.44765162836565      1.02726877389166
| 25>   H          -1.15082562908228     -2.96088818516196      1.14608732357773
| 26>   H          -1.96521863834703     -2.35272083687463     -0.33392470449936
| 27>   H          -0.89543783084858     -3.79109785977738     -0.43316406505192
| 28>   H           0.42040471831739     -2.59525563889509     -2.27947995642364
| 29>   H           1.20758854597524     -1.02309010436333     -1.97766444197915
| 30>   H          -0.58601478575956     -1.12533463283919     -2.13950299906169
| 31>   H           2.36920468299669     -1.93235959238458      0.10820314231445
| 32>   H           1.40475833524785     -2.70438087820102      1.41144794071117
| 33>   H           1.63441637103912     -3.54813229941945     -0.16301123949506
| 34>   H           1.27359473297961      1.11141388862802     -1.55769527551089
| 35>   H           3.27592810801033      2.57555164964782     -1.59560619878672
| 36>   H           4.53403025464737      3.05600907497429      0.51970568238903
| 37>   H           3.76073247989515      2.05674584035114      2.68816289122002
| 38>   H           1.71404010214550      0.56719381502123      2.72116039735227
| 39>   H          -0.79234232103673      1.22451679463247     -1.73557814293326
| 40>   H          -2.93553737184850      2.27730528986540     -2.42009640737134
| 41>   H          -4.93527237852341      2.17162711928585     -0.91086287099568
| 42>   H          -4.76817709475466      1.00891972722230      1.30658241561192
| 43>   H          -2.58103414889265     -0.05732259340505      1.99997795239358
| 44> **                         ****END OF INPUT****

CARTESIAN COORDINATES (ANGSTROEM)
---------------------------------
  C     -1.029849   -2.803507    0.056563
  C      0.191970   -1.909105   -0.232060
  C      0.313734   -1.631656   -1.736435
  C      1.477379   -2.558339    0.315671
  P     -0.075616   -0.368904    0.818356
  O     -0.254137   -0.744944    2.285444
  C      1.370583    0.742059    0.597810
  C      1.808429    1.308370   -0.618324
  C      2.941474    2.136863   -0.642976
  C      3.645859    2.405940    0.543006
  C      3.213186    1.845903    1.756576
  C      2.080576    1.017790    1.785488
  C     -1.565311    0.492024    0.174805
  C     -1.660637    1.156726   -1.065536
  C     -2.869236    1.757439   -1.452025
  C     -3.988951    1.699828   -0.604525
  C     -3.895741    1.047162    0.636150
  C     -2.688552    0.447652    1.027269
  H     -1.150826   -2.960888    1.146087
  H     -1.965219   -2.352721   -0.333925
  H     -0.895438   -3.791098   -0.433164
  H      0.420405   -2.595256   -2.279480
  H      1.207589   -1.023090   -1.977664
  H     -0.586015   -1.125335   -2.139503
  H      2.369205   -1.932360    0.108203
  H      1.404758   -2.704381    1.411448
  H      1.634416   -3.548132   -0.163011
  H      1.273595    1.111414   -1.557695
  H      3.275928    2.575552   -1.595606
  H      4.534030    3.056009    0.519706
  H      3.760732    2.056746    2.688163
  H      1.714040    0.567194    2.721160
  H     -0.792342    1.224517   -1.735578
  H     -2.935537    2.277305   -2.420096
  H     -4.935272    2.171627   -0.910863
  H     -4.768177    1.008920    1.306582
  H     -2.581034   -0.057323    1.999978

 Total Charge           Charge          ....    0
 Multiplicity           Mult            ....    1
 Number of Electrons    NEL             ....  138
 Basis Dimension        Dim             ....  678

ORBITAL ENERGIES
----------------

  NO   OCC          E(Eh)            E(eV)
   0   2.0000     -78.090031     -2124.9378
   1   2.0000     -19.563277      -532.3438
   2   2.0000     -10.564702      -287.4801
   3   2.0000     -10.563798      -287.4556
   4   2.0000     -10.562603      -287.4230
   5   2.0000     -10.560412      -287.3634
   6   2.0000     -10.559959      -287.3511
   7   2.0000     -10.559561      -287.3403
   8   2.0000     -10.559070      -287.3269
   9   2.0000     -10.558740      -287.3179
  10   2.0000     -10.558497      -287.3113
  11   2.0000     -10.556336      -287.2525
  12   2.0000     -10.556144      -287.2473
  13   2.0000     -10.555084      -287.2184
  14   2.0000     -10.554928      -287.2142
  15   2.0000     -10.541108      -286.8381
  16   2.0000     -10.531865      -286.5866
  17   2.0000     -10.531281      -286.5707
  18   2.0000      -6.896906      -187.6744
  19   2.0000      -5.014106      -136.4407
  20   2.0000      -5.013453      -136.4230
  21   2.0000      -5.012278      -136.3910
  22   2.0000      -1.059047       -28.8181
  23   2.0000      -0.964617       -26.2486
  24   2.0000      -0.962035       -26.1783
  25   2.0000      -0.914883       -24.8952
  26   2.0000      -0.858114       -23.3505
  27   2.0000      -0.848973       -23.1017
  28   2.0000      -0.848089       -23.0777
  29   2.0000      -0.845609       -23.0102
  30   2.0000      -0.781815       -21.2743
  31   2.0000      -0.775496       -21.1023
  32   2.0000      -0.729485       -19.8503
  33   2.0000      -0.696903       -18.9637
  34   2.0000      -0.693339       -18.8667
  35   2.0000      -0.683917       -18.6103
  36   2.0000      -0.658547       -17.9200
  37   2.0000      -0.616574       -16.7778
  38   2.0000      -0.598005       -16.2725
  39   2.0000      -0.573315       -15.6007
  40   2.0000      -0.543281       -14.7834
  41   2.0000      -0.530426       -14.4336
  42   2.0000      -0.527428       -14.3520
  43   2.0000      -0.523607       -14.2481
  44   2.0000      -0.514310       -13.9951
  45   2.0000      -0.512229       -13.9385
  46   2.0000      -0.507352       -13.8058
  47   2.0000      -0.495122       -13.4730
  48   2.0000      -0.492744       -13.4082
  49   2.0000      -0.479377       -13.0445
  50   2.0000      -0.463563       -12.6142
  51   2.0000      -0.452991       -12.3265
  52   2.0000      -0.451073       -12.2743
  53   2.0000      -0.447089       -12.1659
  54   2.0000      -0.442117       -12.0306
  55   2.0000      -0.429583       -11.6895
  56   2.0000      -0.423644       -11.5279
  57   2.0000      -0.407971       -11.1015
  58   2.0000      -0.405132       -11.0242
  59   2.0000      -0.404401       -11.0043
  60   2.0000      -0.394889       -10.7455
  61   2.0000      -0.393085       -10.6964
  62   2.0000      -0.386327       -10.5125
  63   2.0000      -0.335227        -9.1220
  64   2.0000      -0.328830        -8.9479
  65   2.0000      -0.316636        -8.6161
  66   2.0000      -0.315254        -8.5785
  67   2.0000      -0.313840        -8.5400
  68   2.0000      -0.311802        -8.4846
  69   0.0000      -0.014853        -0.4042
  70   0.0000       0.004137         0.1126
  71   0.0000       0.005727         0.1558
  72   0.0000       0.014159         0.3853
  73   0.0000       0.058231         1.5846

MULLIKEN ATOMIC CHARGES
-----------------------
   0 C :   -0.469457
   1 C :   -0.006688
   2 C :   -0.534739
   3 C :   -0.461997
   4 P :    0.572530
   5 O :   -0.614088
   6 C :   -0.041991
   7 C :   -0.184727
   8 C :   -0.175795
   9 C :   -0.132028
  10 C :   -0.141248
  11 C :   -0.138690
  12 C :   -0.040721
  13 C :   -0.180033
  14 C :   -0.169695
  15 C :   -0.133395
  16 C :   -0.138775
  17 C :   -0.143695
  18 H :    0.189364
  19 H :    0.165633
  20 H :    0.147712
  21 H :    0.159043
  22 H :    0.171240
  23 H :    0.180124
  24 H :    0.165200
  25 H :    0.187056
  26 H :    0.147798
  27 H :    0.168315
  28 H :    0.146401
  29 H :    0.148695
  30 H :    0.150060
  31 H :    0.200801
  32 H :    0.161130
  33 H :    0.146529
  34 H :    0.148633
  35 H :    0.150136
  36 H :    0.201363
Sum of atomic charges:   -0.0000000

LOEWDIN ATOMIC CHARGES
----------------------
   0 C :   -0.286398
   1 C :   -0.419629
   2 C :   -0.292228
   3 C :   -0.286285
   4 P :    0.701871
   5 O :   -0.318086
   6 C :   -0.227898
   7 C :   -0.142835
   8 C :   -0.141858
   9 C :   -0.132133
  10 C :   -0.135796
  11 C :   -0.115825
  12 C :   -0.229445
  13 C :   -0.139672
  14 C :   -0.141757
  15 C :   -0.132581
  16 C :   -0.136797
  17 C :   -0.117588
  18 H :    0.138166
  19 H :    0.130249
  20 H :    0.128543
  21 H :    0.133569
  22 H :    0.127630
  23 H :    0.130790
  24 H :    0.129809
  25 H :    0.138176
  26 H :    0.128839
  27 H :    0.142895
  28 H :    0.148573
  29 H :    0.148659
  30 H :    0.149767
  31 H :    0.163980
  32 H :    0.145200
  33 H :    0.148505
  34 H :    0.148575
  35 H :    0.149625
  36 H :    0.163392

  Mayer bond orders larger than 0.100000
B(  0-C ,  1-C ) :   0.9567 B(  0-C , 18-H ) :   0.9577 B(  0-C , 19-H ) :   0.9543
B(  0-C , 20-H ) :   0.9588 B(  1-C ,  2-C ) :   0.9095 B(  1-C ,  3-C ) :   0.9616
B(  1-C ,  4-P ) :   0.8626 B(  2-C , 21-H ) :   0.9557 B(  2-C , 22-H ) :   0.9649
B(  2-C , 23-H ) :   0.9598 B(  3-C , 24-H ) :   0.9541 B(  3-C , 25-H ) :   0.9570
B(  3-C , 26-H ) :   0.9587 B(  4-P ,  5-O ) :   1.9069 B(  4-P ,  6-C ) :   0.9053
B(  4-P , 12-C ) :   0.9042 B(  6-C ,  7-C ) :   1.3153 B(  6-C , 11-C ) :   1.4148
B(  7-C ,  8-C ) :   1.5149 B(  7-C , 27-H ) :   0.9191 B(  8-C ,  9-C ) :   1.4444
B(  8-C , 28-H ) :   0.9431 B(  9-C , 10-C ) :   1.4385 B(  9-C , 29-H ) :   0.9463
B( 10-C , 11-C ) :   1.4320 B( 10-C , 30-H ) :   0.9470 B( 11-C , 31-H ) :   0.9062
B( 12-C , 13-C ) :   1.3196 B( 12-C , 17-C ) :   1.4056 B( 13-C , 14-C ) :   1.5143
B( 13-C , 32-H ) :   0.9214 B( 14-C , 15-C ) :   1.4433 B( 14-C , 33-H ) :   0.9424
B( 15-C , 16-C ) :   1.4383 B( 15-C , 34-H ) :   0.9466 B( 16-C , 17-C ) :   1.4321
B( 16-C , 35-H ) :   0.9460 B( 17-C , 36-H ) :   0.9092

Dispersion correction           -0.002509583
FINAL SINGLE POINT ENERGY     -1037.709700471396

DIPOLE MOMENT
-------------

Method             : SCF
Type of density    : Electron Density
Multiplicity       :   1
Irrep              :   0
Energy             : -1037.7071908880516276 Eh
Relativity type    :
Basis              : AO
                                X                 Y                 Z
Electronic contribution:     -1.691543849       9.517862389       6.939879663
Nuclear contribution   :      1.859267243      -9.056466258      -8.364865828
                        -----------------------------------------
Total Dipole Moment    :      0.167723394       0.461396130      -1.424986165
                        -----------------------------------------
Magnitude (a.u.)       :      1.507183830
Magnitude (Debye)      :      3.830956844

Rotational constants in cm-1:             0.017526             0.010307             0.008531
Rotational constants in MHz :           525.422868           309.009831           255.741402

                             ****ORCA TERMINATED NORMALLY****
TOTAL RUN TIME: 0 days 0 hours 1 minutes 47 seconds 463 msec
