                         Program Version 6.0.0  -   RELEASE   -
|  1> ! RIJCOSX M062X def2-TZVP D3ZERO NormalSCF
|  2> %pal
|  3> nprocs 6
|  4> end
|  5>
|  6> * xyz 0 1
|  7>   C           5.16527663511389      0.34403175891872      1.50402649275382
|  8>   C           3.79452409264205      0.18034646573454      0.89356838083724
|  9>   C           3.60050476061875      0.31208282914568     -0.49895819620586
| 10>   C           2.33708386785000      0.12738111537166     -1.07555309381266
| 11>   C           1.22962112522300     -0.18722678979988     -0.26279893875194
| 12>   C           1.40984399824515     -0.33551562870383      1.12635713712499
| 13>   C           2.67883544692157     -0.14702077973031      1.69361213082793
| 14>   P          -0.38175934553164     -0.37576274252413     -1.10698980644657
| 15>   O          -0.25448074462012     -0.82140603349744     -2.55399829150562
| 16>   C          -1.34252328250759     -1.54711892499798     -0.07580227426608
| 17>   C          -1.34705309147499     -2.89280782243583     -0.49546390282668
| 18>   C          -2.04180084076474     -3.85601182906633      0.25184242972645
| 19>   C          -2.73752544109067     -3.47921244069524      1.41406677645780
| 20>   C          -2.74730075694893     -2.13512605515646      1.82462642560231
| 21>   C          -2.05491711601697     -1.16677514286864      1.07918942635049
| 22>   C          -1.22813459892797      1.23925773552460     -0.92465258072004
| 23>   C          -1.00634343107872      2.11668877153269      0.15564339786105
| 24>   C          -1.71563191579391      3.32668355582502      0.23092887360795
| 25>   C          -2.63740637706502      3.66581574501746     -0.77434993749210
| 26>   C          -2.84543525162597      2.79898054992771     -1.86169310694773
| 27>   C          -2.14078753670322      1.58822464601987     -1.94076047341123
| 28>   H           5.70955566004025     -0.62536451764192      1.51775938785750
| 29>   H           5.10729336668391      0.70036863393753      2.55163144593157
| 30>   H           5.78652781732498      1.05776110668753      0.92742424596644
| 31>   H           4.45984071862720      0.56013706817509     -1.14260675336406
| 32>   H           2.19119666075455      0.21257491011848     -2.16360959067626
| 33>   H           0.55917970307251     -0.61344168855867      1.76786842967700
| 34>   H           2.80948244525678     -0.26408218258488      2.78147493419495
| 35>   H          -0.81258390252761     -3.16152434456371     -1.41991305361010
| 36>   H          -2.04644346846888     -4.90659748893771     -0.07727142856733
| 37>   H          -3.28400848714785     -4.23583185609748      1.99797351960051
| 38>   H          -3.30562984911917     -1.83701798673805      2.72541310976254
| 39>   H          -2.08456261796408     -0.10996565597027      1.38700628497972
| 40>   H          -0.26475813803362      1.86258211156364      0.92892321235905
| 41>   H          -1.54035550806607      4.01286256848116      1.07381150975305
| 42>   H          -3.18958920970836      4.61641842704178     -0.71497847246895
| 43>   H          -3.55718776882884      3.07212752386312     -2.65596189120751
| 44>   H          -2.27254861835966      0.90348438768250     -2.79289475895164
| 45> **                         ****END OF INPUT****

CARTESIAN COORDINATES (ANGSTROEM)
---------------------------------
  C      5.165277    0.344032    1.504026
  C      3.794524    0.180346    0.893568
  C      3.600505    0.312083   -0.498958
  C      2.337084    0.127381   -1.075553
  C      1.229621   -0.187227   -0.262799
  C      1.409844   -0.335516    1.126357
  C      2.678835   -0.147021    1.693612
  P     -0.381759   -0.375763   -1.106990
  O     -0.254481   -0.821406   -2.553998
  C     -1.342523   -1.547119   -0.075802
  C     -1.347053   -2.892808   -0.495464
  C     -2.041801   -3.856012    0.251842
  C     -2.737525   -3.479212    1.414067
  C     -2.747301   -2.135126    1.824626
  C     -2.054917   -1.166775    1.079189
  C     -1.228135    1.239258   -0.924653
  C     -1.006343    2.116689    0.155643
  C     -1.715632    3.326684    0.230929
  C     -2.637406    3.665816   -0.774350
  C     -2.845435    2.798981   -1.861693
  C     -2.140788    1.588225   -1.940760
  H      5.709556   -0.625365    1.517759
  H      5.107293    0.700369    2.551631
  H      5.786528    1.057761    0.927424
  H      4.459841    0.560137   -1.142607
  H      2.191197    0.212575   -2.163610
  H      0.559180   -0.613442    1.767868
  H      2.809482   -0.264082    2.781475
  H     -0.812584   -3.161524   -1.419913
  H     -2.046443   -4.906597   -0.077271
  H     -3.284008   -4.235832    1.997974
  H     -3.305630   -1.837018    2.725413
  H     -2.084563   -0.109966    1.387006
  H     -0.264758    1.862582    0.928923
  H     -1.540356    4.012863    1.073812
  H     -3.189589    4.616418   -0.714978
  H     -3.557188    3.072128   -2.655962
  H     -2.272549    0.903484   -2.792895

 Total Charge           Charge          ....    0
 Multiplicity           Mult            ....    1
 Number of Electrons    NEL             ....  154
 Basis Dimension        Dim             ....  759

ORBITAL ENERGIES
----------------

  NO   OCC          E(Eh)            E(eV)
   0   2.0000     -78.094293     -2125.0537
   1   2.0000     -19.565424      -532.4023
   2   2.0000     -10.567595      -287.5589
   3   2.0000     -10.561319      -287.3881
   4   2.0000     -10.561240      -287.3860
   5   2.0000     -10.560233      -287.3586
   6   2.0000     -10.559639      -287.3424
   7   2.0000     -10.559621      -287.3419
   8   2.0000     -10.557838      -287.2934
   9   2.0000     -10.557828      -287.2931
  10   2.0000     -10.557061      -287.2722
  11   2.0000     -10.557052      -287.2720
  12   2.0000     -10.556442      -287.2554
  13   2.0000     -10.556436      -287.2552
  14   2.0000     -10.555867      -287.2397
  15   2.0000     -10.555841      -287.2390
  16   2.0000     -10.555780      -287.2374
  17   2.0000     -10.554372      -287.1991
  18   2.0000     -10.553726      -287.1815
  19   2.0000     -10.552568      -287.1500
  20   2.0000     -10.546617      -286.9880
  21   2.0000      -6.900542      -187.7733
  22   2.0000      -5.017681      -136.5380
  23   2.0000      -5.017640      -136.5369
  24   2.0000      -5.015972      -136.4915
  25   2.0000      -1.060419       -28.8555
  26   2.0000      -0.967180       -26.3183
  27   2.0000      -0.962802       -26.1992
  28   2.0000      -0.961025       -26.1508
  29   2.0000      -0.881620       -23.9901
  30   2.0000      -0.858078       -23.3495
  31   2.0000      -0.848188       -23.0804
  32   2.0000      -0.847561       -23.0633
  33   2.0000      -0.846396       -23.0316
  34   2.0000      -0.843412       -22.9504
  35   2.0000      -0.785855       -21.3842
  36   2.0000      -0.725155       -19.7325
  37   2.0000      -0.697423       -18.9778
  38   2.0000      -0.694449       -18.8969
  39   2.0000      -0.692475       -18.8432
  40   2.0000      -0.682959       -18.5843
  41   2.0000      -0.669871       -18.2281
  42   2.0000      -0.635675       -17.2976
  43   2.0000      -0.597622       -16.2621
  44   2.0000      -0.590445       -16.0668
  45   2.0000      -0.563420       -15.3314
  46   2.0000      -0.540233       -14.7005
  47   2.0000      -0.531715       -14.4687
  48   2.0000      -0.529096       -14.3974
  49   2.0000      -0.523577       -14.2472
  50   2.0000      -0.520619       -14.1668
  51   2.0000      -0.515472       -14.0267
  52   2.0000      -0.495312       -13.4781
  53   2.0000      -0.493256       -13.4222
  54   2.0000      -0.492653       -13.4058
  55   2.0000      -0.490585       -13.3495
  56   2.0000      -0.486686       -13.2434
  57   2.0000      -0.479862       -13.0577
  58   2.0000      -0.457106       -12.4385
  59   2.0000      -0.449532       -12.2324
  60   2.0000      -0.444378       -12.0921
  61   2.0000      -0.441633       -12.0175
  62   2.0000      -0.430643       -11.7184
  63   2.0000      -0.418786       -11.3958
  64   2.0000      -0.410280       -11.1643
  65   2.0000      -0.407873       -11.0988
  66   2.0000      -0.403497       -10.9797
  67   2.0000      -0.403142       -10.9701
  68   2.0000      -0.401100       -10.9145
  69   2.0000      -0.337996        -9.1973
  70   2.0000      -0.336543        -9.1578
  71   2.0000      -0.318749        -8.6736
  72   2.0000      -0.317000        -8.6260
  73   2.0000      -0.316474        -8.6117
  74   2.0000      -0.313083        -8.5194
  75   2.0000      -0.312066        -8.4917
  76   2.0000      -0.302460        -8.2304
  77   0.0000      -0.010124        -0.2755
  78   0.0000      -0.008807        -0.2396
  79   0.0000       0.001568         0.0427
  80   0.0000       0.004806         0.1308
  81   0.0000       0.013869         0.3774

MULLIKEN ATOMIC CHARGES
-----------------------
   0 C :   -0.477855
   1 C :    0.114722
   2 C :   -0.161084
   3 C :   -0.149625
   4 C :   -0.097278
   5 C :   -0.196948
   6 C :   -0.176667
   7 P :    0.632626
   8 O :   -0.600438
   9 C :   -0.069206
  10 C :   -0.149141
  11 C :   -0.136099
  12 C :   -0.135916
  13 C :   -0.148739
  14 C :   -0.200023
  15 C :   -0.073803
  16 C :   -0.197463
  17 C :   -0.150000
  18 C :   -0.135290
  19 C :   -0.136451
  20 C :   -0.150255
  21 H :    0.164456
  22 H :    0.147766
  23 H :    0.150435
  24 H :    0.150728
  25 H :    0.183535
  26 H :    0.193907
  27 H :    0.149771
  28 H :    0.185765
  29 H :    0.149821
  30 H :    0.148498
  31 H :    0.148113
  32 H :    0.194253
  33 H :    0.195894
  34 H :    0.147872
  35 H :    0.148873
  36 H :    0.150293
  37 H :    0.184954
Sum of atomic charges:   -0.0000000

LOEWDIN ATOMIC CHARGES
----------------------
   0 C :   -0.265948
   1 C :   -0.159796
   2 C :   -0.111869
   3 C :   -0.112635
   4 C :   -0.234572
   5 C :   -0.137023
   6 C :   -0.117822
   7 P :    0.684937
   8 O :   -0.308898
   9 C :   -0.228618
  10 C :   -0.114015
  11 C :   -0.135769
  12 C :   -0.132592
  13 C :   -0.141715
  14 C :   -0.138462
  15 C :   -0.228958
  16 C :   -0.138453
  17 C :   -0.141793
  18 C :   -0.132493
  19 C :   -0.135747
  20 C :   -0.113890
  21 H :    0.137740
  22 H :    0.131619
  23 H :    0.132589
  24 H :    0.151390
  25 H :    0.160882
  26 H :    0.155812
  27 H :    0.150351
  28 H :    0.160844
  29 H :    0.149522
  30 H :    0.148514
  31 H :    0.148577
  32 H :    0.155391
  33 H :    0.155589
  34 H :    0.148497
  35 H :    0.148515
  36 H :    0.149526
  37 H :    0.160774

  Mayer bond orders larger than 0.100000
B(  0-C ,  1-C ) :   0.9320 B(  0-C , 21-H ) :   0.9457 B(  0-C , 22-H ) :   0.9819
B(  0-C , 23-H ) :   0.9804 B(  1-C ,  2-C ) :   1.3901 B(  1-C ,  6-C ) :   1.4074
B(  2-C ,  3-C ) :   1.4693 B(  2-C , 24-H ) :   0.9335 B(  3-C ,  4-C ) :   1.4298
B(  3-C , 25-H ) :   0.9125 B(  4-C ,  5-C ) :   1.3194 B(  4-C ,  7-P ) :   0.9251
B(  5-C ,  6-C ) :   1.5144 B(  5-C , 26-H ) :   0.9157 B(  6-C , 27-H ) :   0.9254
B(  7-P ,  8-O ) :   1.9412 B(  7-P ,  9-C ) :   0.9186 B(  7-P , 15-C ) :   0.9187
B(  9-C , 10-C ) :   1.4348 B(  9-C , 14-C ) :   1.3205 B( 10-C , 11-C ) :   1.4410
B( 10-C , 28-H ) :   0.9088 B( 11-C , 12-C ) :   1.4319 B( 11-C , 29-H ) :   0.9470
B( 12-C , 13-C ) :   1.4435 B( 12-C , 30-H ) :   0.9469 B( 13-C , 14-C ) :   1.4822
B( 13-C , 31-H ) :   0.9434 B( 14-C , 32-H ) :   0.9169 B( 15-C , 16-C ) :   1.3236
B( 15-C , 20-C ) :   1.4370 B( 16-C , 17-C ) :   1.4815 B( 16-C , 33-H ) :   0.9159
B( 17-C , 18-C ) :   1.4435 B( 17-C , 34-H ) :   0.9437 B( 18-C , 19-C ) :   1.4315
B( 18-C , 35-H ) :   0.9465 B( 19-C , 20-C ) :   1.4411 B( 19-C , 36-H ) :   0.9466
B( 20-C , 37-H ) :   0.9096

Dispersion correction           -0.002484878
FINAL SINGLE POINT ENERGY     -1150.824392079222

DIPOLE MOMENT
-------------

Method             : SCF
Type of density    : Electron Density
Multiplicity       :   1
Irrep              :   0
Energy             : -1150.8219072011256685 Eh
Relativity type    :
Basis              : AO
                                X                 Y                 Z
Electronic contribution:     -7.104085409      -2.239794982      -7.693197009
Nuclear contribution   :      7.184150592       2.733324093       9.354348076
                        -----------------------------------------
Total Dipole Moment    :      0.080065183       0.493529111       1.661151067
                        -----------------------------------------
Magnitude (a.u.)       :      1.734763466
Magnitude (Debye)      :      4.409418309

Rotational constants in cm-1:             0.010571             0.008144             0.005807
Rotational constants in MHz :           316.897931           244.161710           174.098078

                             ****ORCA TERMINATED NORMALLY****
TOTAL RUN TIME: 0 days 0 hours 2 minutes 10 seconds 296 msec
