                         Program Version 6.0.0  -   RELEASE   -
|  1> ! RIJONX B3LYP def2-SVP D3BJ TIGHTSCF Opt
|  2> %pal
|  3> nprocs 6
|  4> end
|  5>
|  6> * xyz 0 1
|  7> C     -3.296128   -2.182510   -0.321687
|  8> C     -2.419882   -1.204959   -0.802917
|  9> C     -1.024629   -1.346316   -0.679951
| 10> C     -0.537286   -2.532854   -0.109952
| 11> C     -1.414955   -3.508041    0.370406
| 12> C     -2.791989   -3.334886    0.273322
| 13> Cl    -0.785974   -4.942877    1.084179
| 14> P      0.078191   -0.062011   -1.358299
| 15> C      1.637659   -0.239119   -0.428618
| 16> C      2.826956   -0.394813   -1.159689
| 17> C      4.051699   -0.530441   -0.503617
| 18> C      4.116604   -0.514284    0.886343
| 19> C      2.946837   -0.360681    1.626059
| 20> C      1.718202   -0.223242    0.973017
| 21> Cl     5.494913   -0.719633   -1.422286
| 22> C     -0.551685    1.508963   -0.667627
| 23> C     -1.249316    1.616285    0.544604
| 24> C     -1.692310    2.858985    1.002619
| 25> C     -1.449937    4.015357    0.267389
| 26> C     -0.756454    3.928998   -0.936525
| 27> C     -0.311277    2.686744   -1.398202
| 28> Cl    -2.545958    2.960765    2.494053
| 29> H     -4.370224   -2.044128   -0.418818
| 30> H     -2.846216   -0.323241   -1.280410
| 31> H      0.531490   -2.719665   -0.039849
| 32> H     -3.472789   -4.095413    0.645730
| 33> H      2.805824   -0.410978   -2.247497
| 34> H      5.070082   -0.620329    1.396548
| 35> H      2.987774   -0.347763    2.712645
| 36> H      0.824560   -0.112362    1.582145
| 37> H     -1.452212    0.736794    1.149841
| 38> H     -1.794531    4.981315    0.626236
| 39> H     -0.558741    4.826644   -1.517308
| 40> H      0.231700    2.649698   -2.341885
| 41> **                         ****END OF INPUT****
 Total Charge           Charge          ....    0
 Multiplicity           Mult            ....    1
 Number of Electrons    NEL             ....  186
Dispersion correction           -0.096879691
FINAL SINGLE POINT ENERGY     -2413.508479782880
Dispersion correction             ... done (  0.1 sec)
Dispersion correction           -0.097515722
FINAL SINGLE POINT ENERGY     -2413.511876315080
Dispersion correction             ... done (  0.1 sec)
Dispersion correction           -0.097526141
FINAL SINGLE POINT ENERGY     -2413.512920463319
Dispersion correction             ... done (  0.1 sec)
FINAL SINGLE POINT ENERGY     -2413.513295439638
FINAL SINGLE POINT ENERGY     -2413.513839532409
FINAL SINGLE POINT ENERGY     -2413.514320613951
FINAL SINGLE POINT ENERGY     -2413.514541663782
FINAL SINGLE POINT ENERGY     -2413.514592352870
FINAL SINGLE POINT ENERGY     -2413.514609353159
Dispersion correction             ... done (  0.1 sec)
Dispersion correction           -0.097885926
FINAL SINGLE POINT ENERGY     -2413.514614569874
Dispersion correction             ... done (  0.1 sec)
Dispersion correction           -0.097886535
FINAL SINGLE POINT ENERGY     -2413.514618150522
Dispersion correction             ... done (  0.1 sec)
                    ***********************HURRAY********************

CARTESIAN COORDINATES (ANGSTROEM)
---------------------------------
  C     -3.027466   -2.511990   -0.938223
  C     -2.197163   -1.498313   -1.419799
  C     -0.965546   -1.232185   -0.797420
  C     -0.569179   -2.009541    0.300278
  C     -1.405676   -3.028774    0.762830
  C     -2.637170   -3.288462    0.156045
  Cl    -0.901398   -3.992305    2.132478
  P      0.048263    0.151627   -1.489149
  C      1.655353   -0.115507   -0.611879
  C      2.551603   -1.019560   -1.205814
  C      3.773631   -1.293259   -0.589866
  C      4.135382   -0.665035    0.606040
  C      3.247857    0.243748    1.185211
  C      2.014531    0.518800    0.587053
  Cl     4.875036   -2.430799   -1.331463
  C     -0.633183    1.593709   -0.551876
  C     -1.515244    1.467768    0.530852
  C     -1.979397    2.614468    1.180941
  C     -1.577893    3.890522    0.777844
  C     -0.699514    4.011208   -0.302479
  C     -0.237240    2.875788   -0.970069
  Cl    -3.080352    2.444974    2.529697
  H     -3.986664   -2.709361   -1.423319
  H     -2.505738   -0.904838   -2.284655
  H      0.380617   -1.827572    0.803535
  H     -3.272120   -4.089803    0.536790
  H      2.300133   -1.515890   -2.145790
  H      5.098896   -0.888004    1.066684
  H      3.520953    0.740175    2.119845
  H      1.329011    1.224552    1.058533
  H     -1.841834    0.487250    0.877895
  H     -1.954719    4.769999    1.302092
  H     -0.382512    5.004508   -0.630009
  H      0.438740    2.982103   -1.822835

 Multiplicity           Mult            ....    1
 Number of Electrons    NEL             ....  186
 Basis Dimension        Dim             ....  384

ORBITAL ENERGIES
----------------

  NO   OCC          E(Eh)            E(eV)
   0   2.0000    -101.503696     -2762.0560
   1   2.0000    -101.503176     -2762.0418
   2   2.0000    -101.502512     -2762.0238
   3   2.0000     -77.067007     -2097.0999
   4   2.0000     -10.250830      -278.9393
   5   2.0000     -10.250232      -278.9230
   6   2.0000     -10.249708      -278.9087
   7   2.0000     -10.209346      -277.8104
   8   2.0000     -10.208831      -277.7964
   9   2.0000     -10.208652      -277.7915
  10   2.0000     -10.208211      -277.7795
  11   2.0000     -10.208000      -277.7738
  12   2.0000     -10.207576      -277.7623
  13   2.0000     -10.207157      -277.7509
  14   2.0000     -10.207132      -277.7502
  15   2.0000     -10.207000      -277.7466
  16   2.0000     -10.206526      -277.7337
  17   2.0000     -10.206327      -277.7283
  18   2.0000     -10.206180      -277.7243
  19   2.0000     -10.205213      -277.6980
  20   2.0000     -10.204407      -277.6760
  21   2.0000     -10.202760      -277.6312
  22   2.0000      -9.458265      -257.3725
  23   2.0000      -9.457747      -257.3584
  24   2.0000      -9.457082      -257.3403
  25   2.0000      -7.227275      -196.6641
  26   2.0000      -7.226780      -196.6507
  27   2.0000      -7.226100      -196.6322
  28   2.0000      -7.217550      -196.3995
  29   2.0000      -7.217168      -196.3891
  30   2.0000      -7.217014      -196.3849
  31   2.0000      -7.216643      -196.3748
  32   2.0000      -7.216364      -196.3673
  33   2.0000      -7.215980      -196.3568
  34   2.0000      -6.562683      -178.5797
  35   2.0000      -4.728097      -128.6581
  36   2.0000      -4.728093      -128.6580
  37   2.0000      -4.725184      -128.5788
  38   2.0000      -0.890808       -24.2401
  39   2.0000      -0.888472       -24.1765
  40   2.0000      -0.887735       -24.1565
  41   2.0000      -0.841801       -22.9066
  42   2.0000      -0.833640       -22.6845
  43   2.0000      -0.833135       -22.6707
  44   2.0000      -0.777110       -21.1463
  45   2.0000      -0.755096       -20.5472
  46   2.0000      -0.751493       -20.4492
  47   2.0000      -0.734762       -19.9939
  48   2.0000      -0.732051       -19.9201
  49   2.0000      -0.729482       -19.8502
  50   2.0000      -0.663503       -18.0548
  51   2.0000      -0.620202       -16.8766
  52   2.0000      -0.615779       -16.7562
  53   2.0000      -0.608272       -16.5519
  54   2.0000      -0.600660       -16.3448
  55   2.0000      -0.593126       -16.1398
  56   2.0000      -0.558455       -15.1963
  57   2.0000      -0.525297       -14.2941
  58   2.0000      -0.524539       -14.2734
  59   2.0000      -0.507623       -13.8131
  60   2.0000      -0.481318       -13.0973
  61   2.0000      -0.480668       -13.0796
  62   2.0000      -0.479766       -13.0551
  63   2.0000      -0.459410       -12.5012
  64   2.0000      -0.458748       -12.4832
  65   2.0000      -0.451734       -12.2923
  66   2.0000      -0.437122       -11.8947
  67   2.0000      -0.436009       -11.8644
  68   2.0000      -0.435802       -11.8588
  69   2.0000      -0.425495       -11.5783
  70   2.0000      -0.424965       -11.5639
  71   2.0000      -0.401560       -10.9270
  72   2.0000      -0.399484       -10.8705
  73   2.0000      -0.399164       -10.8618
  74   2.0000      -0.388739       -10.5781
  75   2.0000      -0.369930       -10.0663
  76   2.0000      -0.369095       -10.0436
  77   2.0000      -0.368466       -10.0265
  78   2.0000      -0.348927        -9.4948
  79   2.0000      -0.346185        -9.4202
  80   2.0000      -0.337255        -9.1772
  81   2.0000      -0.334570        -9.1041
  82   2.0000      -0.333071        -9.0633
  83   2.0000      -0.311638        -8.4801
  84   2.0000      -0.308889        -8.4053
  85   2.0000      -0.308362        -8.3910
  86   2.0000      -0.288449        -7.8491
  87   2.0000      -0.276303        -7.5186
  88   2.0000      -0.272889        -7.4257
  89   2.0000      -0.256869        -6.9897
  90   2.0000      -0.252783        -6.8786
  91   2.0000      -0.250370        -6.8129
  92   2.0000      -0.230164        -6.2631
  93   0.0000      -0.040757        -1.1091
  94   0.0000      -0.040066        -1.0903
  95   0.0000      -0.035396        -0.9632
  96   0.0000      -0.023807        -0.6478
  97   0.0000      -0.018436        -0.5017

MULLIKEN ATOMIC CHARGES
-----------------------
   0 C :    0.015730
   1 C :    0.042177
   2 C :   -0.183608
   3 C :    0.043234
   4 C :    0.053637
   5 C :    0.035606
   6 Cl:   -0.095579
   7 P :    0.375204
   8 C :   -0.182887
   9 C :    0.046996
  10 C :    0.050353
  11 C :    0.039436
  12 C :    0.020356
  13 C :    0.032256
  14 Cl:   -0.096723
  15 C :   -0.179441
  16 C :    0.041487
  17 C :    0.052492
  18 C :    0.033728
  19 C :    0.014476
  20 C :    0.040359
  21 Cl:   -0.096074
  22 H :   -0.005120
  23 H :   -0.010972
  24 H :   -0.005584
  25 H :   -0.013831
  26 H :   -0.014719
  27 H :   -0.013432
  28 H :   -0.007043
  29 H :    0.002178
  30 H :   -0.004314
  31 H :   -0.014336
  32 H :   -0.005420
  33 H :   -0.010621
Sum of atomic charges:   -0.0000000

LOEWDIN ATOMIC CHARGES
----------------------
   0 C :   -0.014836
   1 C :   -0.032128
   2 C :   -0.169329
   3 C :   -0.047085
   4 C :   -0.111271
   5 C :   -0.035895
   6 Cl:    0.110317
   7 P :    0.525273
   8 C :   -0.168697
   9 C :   -0.045503
  10 C :   -0.111606
  11 C :   -0.036072
  12 C :   -0.014660
  13 C :   -0.034546
  14 Cl:    0.110771
  15 C :   -0.168081
  16 C :   -0.047636
  17 C :   -0.111852
  18 C :   -0.037483
  19 C :   -0.015767
  20 C :   -0.032404
  21 Cl:    0.109545
  22 H :    0.032876
  23 H :    0.027679
  24 H :    0.032668
  25 H :    0.033024
  26 H :    0.029901
  27 H :    0.032979
  28 H :    0.032609
  29 H :    0.031223
  30 H :    0.032803
  31 H :    0.032727
  32 H :    0.032660
  33 H :    0.027798

  Mayer bond orders larger than 0.100000
B(  0-C ,  1-C ) :   1.3949 B(  0-C ,  5-C ) :   1.3636 B(  0-C , 22-H ) :   0.9815
B(  1-C ,  2-C ) :   1.3709 B(  1-C , 23-H ) :   0.9843 B(  2-C ,  3-C ) :   1.3601
B(  2-C ,  7-P ) :   0.9307 B(  3-C ,  4-C ) :   1.3723 B(  3-C , 24-H ) :   0.9842
B(  4-C ,  5-C ) :   1.3926 B(  4-C ,  6-Cl) :   0.9804 B(  5-C , 25-H ) :   0.9868
B(  7-P ,  8-C ) :   0.9282 B(  7-P , 15-C ) :   0.9278 B(  8-C ,  9-C ) :   1.3466
B(  8-C , 13-C ) :   1.3847 B(  9-C , 10-C ) :   1.3996 B(  9-C , 26-H ) :   0.9844
B( 10-C , 11-C ) :   1.3850 B( 10-C , 14-Cl) :   0.9731 B( 11-C , 12-C ) :   1.3696
B( 11-C , 27-H ) :   0.9875 B( 12-C , 13-C ) :   1.3748 B( 12-C , 28-H ) :   0.9807
B( 13-C , 29-H ) :   0.9816 B( 15-C , 16-C ) :   1.3631 B( 15-C , 20-C ) :   1.3700
B( 16-C , 17-C ) :   1.3710 B( 16-C , 30-H ) :   0.9844 B( 17-C , 18-C ) :   1.3933
B( 17-C , 21-Cl) :   0.9802 B( 18-C , 19-C ) :   1.3623 B( 18-C , 31-H ) :   0.9870
B( 19-C , 20-C ) :   1.3967 B( 19-C , 32-H ) :   0.9816 B( 20-C , 33-H ) :   0.9841

Dispersion correction           -0.097883802
FINAL SINGLE POINT ENERGY     -2413.514618789181

DIPOLE MOMENT
-------------

Method             : SCF
Type of density    : Electron Density
Multiplicity       :   1
Irrep              :   0
Energy             : -2413.4167349872591330 Eh
Relativity type    :
Basis              : AO
                                X                 Y                 Z
Electronic contribution:      2.426902983      -9.796511213       4.517509736
Nuclear contribution   :     -2.609018307      10.465752707      -4.614916346
                        -----------------------------------------
Total Dipole Moment    :     -0.182115324       0.669241493      -0.097406611
                        -----------------------------------------
Magnitude (a.u.)       :      0.700384334
Magnitude (Debye)      :      1.780235500

Rotational constants in cm-1:             0.007523             0.004917             0.003652
Rotational constants in MHz :           225.534403           147.393705           109.474572

                             ****ORCA TERMINATED NORMALLY****
TOTAL RUN TIME: 0 days 0 hours 11 minutes 52 seconds 941 msec
