                         Program Version 6.0.0  -   RELEASE   -
|  1> ! RIJCOSX M062X def2-TZVP D3ZERO NormalSCF
|  2> %pal
|  3> nprocs 6
|  4> end
|  5>
|  6> * xyz 0 1
|  7>   C          -1.73044275800787     -3.71020236960405      0.85421626096512
|  8>   C          -1.31332953488227     -3.86088849286778     -0.47796798096703
|  9>   C          -0.71956069695997     -2.78050461800013     -1.15347751239722
| 10>   C          -0.53270546206262     -1.54417043011401     -0.50077853511466
| 11>   C          -0.95359109799843     -1.40035177628615      0.84057047869267
| 12>   C          -1.55091749355186     -2.47838511292884      1.51031585856681
| 13>   P           0.28408007290656     -0.18033834624557     -1.45703965194320
| 14>   C          -0.78223345318854      1.27782810080973     -0.97298900553859
| 15>   C          -1.55433449513652      1.89595580145477     -1.97680892136800
| 16>   C          -2.35717317778322      2.99497127391684     -1.63438533662925
| 17>   C          -2.35361530481730      3.44120238649356     -0.30508262751356
| 18>   C          -1.55050635902259      2.75660674528291      0.62516103542507
| 19>   N          -0.78573591928651      1.70195244656783      0.30661423359613
| 20>   C           1.74529227524064      0.20137670781457     -0.37724340584838
| 21>   C           2.31946093705783     -0.73030731332455      0.51212453787800
| 22>   C           3.46799001669757     -0.35309557045402      1.22341608624272
| 23>   C           3.99844759109273      0.93115051626045      1.02627305138939
| 24>   C           3.35679148738447      1.77954813413092      0.10617083997317
| 25>   N           2.26565698830982      1.42720355270437     -0.58863074664880
| 26>   H          -2.19816848774808     -4.55443227228164      1.38427950772766
| 27>   H          -1.45272305072257     -4.82251742066269     -0.99581094846799
| 28>   H          -0.39448103882466     -2.89315174298399     -2.20028450858685
| 29>   H          -0.81023387136469     -0.43040122077868      1.34240934511418
| 30>   H          -1.87908152161907     -2.35832772285699      2.55475744410766
| 31>   H          -1.51145502393189      1.51773296278021     -3.00948625786592
| 32>   H          -2.97002421396727      3.50025008275919     -2.39704352698423
| 33>   H          -2.95934689579998      4.30373431533110      0.01120317883691
| 34>   H          -1.52588405830882      3.07685539744740      1.68236237572633
| 35>   H           1.86504026505008     -1.72194662329262      0.65070039423128
| 36>   H           3.93966423069993     -1.05350704941800      1.93050822532869
| 37>   H           4.89370365365747      1.27077138776518      1.56847832532482
| 38>   H           3.74941939688763      2.79538927058065     -0.08253521325293
| 39> **                         ****END OF INPUT****

CARTESIAN COORDINATES (ANGSTROEM)
---------------------------------
  C     -1.730443   -3.710202    0.854216
  C     -1.313330   -3.860888   -0.477968
  C     -0.719561   -2.780505   -1.153478
  C     -0.532705   -1.544170   -0.500779
  C     -0.953591   -1.400352    0.840570
  C     -1.550917   -2.478385    1.510316
  P      0.284080   -0.180338   -1.457040
  C     -0.782233    1.277828   -0.972989
  C     -1.554334    1.895956   -1.976809
  C     -2.357173    2.994971   -1.634385
  C     -2.353615    3.441202   -0.305083
  C     -1.550506    2.756607    0.625161
  N     -0.785736    1.701952    0.306614
  C      1.745292    0.201377   -0.377243
  C      2.319461   -0.730307    0.512125
  C      3.467990   -0.353096    1.223416
  C      3.998448    0.931151    1.026273
  C      3.356791    1.779548    0.106171
  N      2.265657    1.427204   -0.588631
  H     -2.198168   -4.554432    1.384280
  H     -1.452723   -4.822517   -0.995811
  H     -0.394481   -2.893152   -2.200285
  H     -0.810234   -0.430401    1.342409
  H     -1.879082   -2.358328    2.554757
  H     -1.511455    1.517733   -3.009486
  H     -2.970024    3.500250   -2.397044
  H     -2.959347    4.303734    0.011203
  H     -1.525884    3.076855    1.682362
  H      1.865040   -1.721947    0.650700
  H      3.939664   -1.053507    1.930508
  H      4.893704    1.270771    1.568478
  H      3.749419    2.795389   -0.082535

 Total Charge           Charge          ....    0
 Multiplicity           Mult            ....    1
 Number of Electrons    NEL             ....  138
 Basis Dimension        Dim             ....  673

ORBITAL ENERGIES
----------------

  NO   OCC          E(Eh)            E(eV)
   0   2.0000     -78.029141     -2123.2809
   1   2.0000     -14.754104      -401.4796
   2   2.0000     -14.747363      -401.2962
   3   2.0000     -10.586026      -288.0604
   4   2.0000     -10.583928      -288.0033
   5   2.0000     -10.582069      -287.9527
   6   2.0000     -10.577895      -287.8392
   7   2.0000     -10.567929      -287.5680
   8   2.0000     -10.562469      -287.4194
   9   2.0000     -10.559315      -287.3336
  10   2.0000     -10.558171      -287.3024
  11   2.0000     -10.552848      -287.1576
  12   2.0000     -10.552059      -287.1361
  13   2.0000     -10.551963      -287.1335
  14   2.0000     -10.551936      -287.1328
  15   2.0000     -10.551323      -287.1161
  16   2.0000     -10.549547      -287.0678
  17   2.0000     -10.548576      -287.0413
  18   2.0000     -10.546028      -286.9720
  19   2.0000      -6.845575      -186.2776
  20   2.0000      -4.960128      -134.9719
  21   2.0000      -4.959780      -134.9625
  22   2.0000      -4.959544      -134.9561
  23   2.0000      -1.051161       -28.6035
  24   2.0000      -1.042960       -28.3804
  25   2.0000      -0.954819       -25.9819
  26   2.0000      -0.902565       -24.5600
  27   2.0000      -0.896278       -24.3890
  28   2.0000      -0.871472       -23.7140
  29   2.0000      -0.850967       -23.1560
  30   2.0000      -0.840053       -22.8590
  31   2.0000      -0.837322       -22.7847
  32   2.0000      -0.746813       -20.3218
  33   2.0000      -0.714192       -19.4342
  34   2.0000      -0.708500       -19.2793
  35   2.0000      -0.701463       -19.0878
  36   2.0000      -0.685475       -18.6527
  37   2.0000      -0.681327       -18.5398
  38   2.0000      -0.640702       -17.4344
  39   2.0000      -0.591021       -16.0825
  40   2.0000      -0.587983       -15.9998
  41   2.0000      -0.569070       -15.4852
  42   2.0000      -0.551226       -14.9996
  43   2.0000      -0.545807       -14.8522
  44   2.0000      -0.528947       -14.3934
  45   2.0000      -0.522961       -14.2305
  46   2.0000      -0.514249       -13.9934
  47   2.0000      -0.510676       -13.8962
  48   2.0000      -0.487409       -13.2631
  49   2.0000      -0.484439       -13.1823
  50   2.0000      -0.481400       -13.0996
  51   2.0000      -0.475982       -12.9521
  52   2.0000      -0.469474       -12.7750
  53   2.0000      -0.457223       -12.4417
  54   2.0000      -0.455533       -12.3957
  55   2.0000      -0.439946       -11.9716
  56   2.0000      -0.432549       -11.7702
  57   2.0000      -0.402107       -10.9419
  58   2.0000      -0.399130       -10.8609
  59   2.0000      -0.385275       -10.4839
  60   2.0000      -0.350264        -9.5312
  61   2.0000      -0.342697        -9.3253
  62   2.0000      -0.333262        -9.0685
  63   2.0000      -0.324338        -8.8257
  64   2.0000      -0.321807        -8.7568
  65   2.0000      -0.315910        -8.5963
  66   2.0000      -0.308036        -8.3821
  67   2.0000      -0.299164        -8.1407
  68   2.0000      -0.277409        -7.5487
  69   0.0000      -0.016238        -0.4418
  70   0.0000      -0.006126        -0.1667
  71   0.0000       0.002864         0.0779
  72   0.0000       0.012205         0.3321
  73   0.0000       0.013285         0.3615

MULLIKEN ATOMIC CHARGES
-----------------------
   0 C :   -0.133990
   1 C :   -0.154350
   2 C :   -0.123112
   3 C :   -0.116433
   4 C :   -0.175619
   5 C :   -0.149467
   6 P :    0.139016
   7 C :    0.136379
   8 C :   -0.161266
   9 C :   -0.108098
  10 C :   -0.144599
  11 C :   -0.064309
  12 N :   -0.289630
  13 C :    0.096600
  14 C :   -0.164635
  15 C :   -0.125018
  16 C :   -0.144282
  17 C :   -0.072586
  18 N :   -0.255107
  19 H :    0.145800
  20 H :    0.144995
  21 H :    0.156144
  22 H :    0.202880
  23 H :    0.145569
  24 H :    0.157733
  25 H :    0.152153
  26 H :    0.147944
  27 H :    0.142553
  28 H :    0.179225
  29 H :    0.149878
  30 H :    0.144016
  31 H :    0.141615
Sum of atomic charges:   -0.0000000

LOEWDIN ATOMIC CHARGES
----------------------
   0 C :   -0.138711
   1 C :   -0.146000
   2 C :   -0.146963
   3 C :   -0.282878
   4 C :   -0.129976
   5 C :   -0.144184
   6 P :    0.701748
   7 C :   -0.328144
   8 C :   -0.146210
   9 C :   -0.120570
  10 C :   -0.148521
  11 C :   -0.198614
  12 N :    0.128584
  13 C :   -0.338957
  14 C :   -0.144279
  15 C :   -0.123447
  16 C :   -0.156002
  17 C :   -0.201324
  18 N :    0.128173
  19 H :    0.146978
  20 H :    0.147268
  21 H :    0.148094
  22 H :    0.159351
  23 H :    0.147467
  24 H :    0.151184
  25 H :    0.150372
  26 H :    0.149155
  27 H :    0.141183
  28 H :    0.157111
  29 H :    0.149533
  30 H :    0.147784
  31 H :    0.140796

  Mayer bond orders larger than 0.100000
B(  0-C ,  1-C ) :   1.4519 B(  0-C ,  5-C ) :   1.4214 B(  0-C , 19-H ) :   0.9471
B(  1-C ,  2-C ) :   1.4491 B(  1-C , 20-H ) :   0.9497 B(  2-C ,  3-C ) :   1.4131
B(  2-C , 21-H ) :   0.9276 B(  3-C ,  4-C ) :   1.3294 B(  3-C ,  6-P ) :   0.9408
B(  4-C ,  5-C ) :   1.4634 B(  4-C , 22-H ) :   0.9114 B(  5-C , 23-H ) :   0.9454
B(  6-P ,  7-C ) :   0.9506 B(  6-P , 13-C ) :   0.9792 B(  7-C ,  8-C ) :   1.4140
B(  7-C , 12-N ) :   1.2453 B(  8-C ,  9-C ) :   1.4320 B(  8-C , 24-H ) :   0.9263
B(  9-C , 10-C ) :   1.4377 B(  9-C , 25-H ) :   0.9478 B( 10-C , 11-C ) :   1.3771
B( 10-C , 26-H ) :   0.9481 B( 11-C , 12-N ) :   1.5122 B( 11-C , 27-H ) :   0.9722
B( 13-C , 14-C ) :   1.3839 B( 13-C , 18-N ) :   1.3285 B( 14-C , 15-C ) :   1.4487
B( 14-C , 28-H ) :   0.9297 B( 15-C , 16-C ) :   1.4266 B( 15-C , 29-H ) :   0.9474
B( 16-C , 17-C ) :   1.3811 B( 16-C , 30-H ) :   0.9505 B( 17-C , 18-N ) :   1.5130
B( 17-C , 31-H ) :   0.9737

Dispersion correction           -0.001889594
FINAL SINGLE POINT ENERGY     -1068.320870239891

DIPOLE MOMENT
-------------

Method             : SCF
Type of density    : Electron Density
Multiplicity       :   1
Irrep              :   0
Energy             : -1068.3189806459301963 Eh
Relativity type    :
Basis              : AO
                                X                 Y                 Z
Electronic contribution:      2.011949320       1.905960430      -5.408229365
Nuclear contribution   :     -2.369343449      -1.872645807       5.945173821
                        -----------------------------------------
Total Dipole Moment    :     -0.357394129       0.033314623       0.536944456
                        -----------------------------------------
Magnitude (a.u.)       :      0.645871332
Magnitude (Debye)      :      1.641674459

Rotational constants in cm-1:             0.012787             0.011350             0.007294
Rotational constants in MHz :           383.353442           340.255766           218.656665

                             ****ORCA TERMINATED NORMALLY****
TOTAL RUN TIME: 0 days 0 hours 1 minutes 49 seconds 903 msec
