                         Program Version 6.0.0  -   RELEASE   -
|  1> ! RI BP86 def2-SVP D3BJ TIGHTSCF Opt
|  2> %pal
|  3> nprocs 6
|  4> end
|  5>
|  6> * xyz 0 1
|  7> C     -3.625327   -4.468712    0.818394
|  8> C     -2.715023   -3.384509    0.322506
|  9> C     -1.597259   -2.999387    1.070592
| 10> C     -0.728593   -2.013514    0.594532
| 11> C     -0.957059   -1.400471   -0.644638
| 12> C     -2.068772   -1.803979   -1.398825
| 13> C     -2.936592   -2.788597   -0.922977
| 14> P      0.114610   -0.108684   -1.305065
| 15> O      0.247176   -0.234395   -2.814580
| 16> C     -0.591450    1.488366   -0.853110
| 17> C     -1.473110    1.648709    0.224167
| 18> C     -1.981517    2.910433    0.544689
| 19> C     -1.611646    4.036510   -0.198609
| 20> C     -0.746628    3.878252   -1.285867
| 21> C     -0.238915    2.617889   -1.606380
| 22> C     -2.187181    5.383583    0.124207
| 23> C      1.724353   -0.254645   -0.504580
| 24> C      2.662726   -1.150606   -1.037713
| 25> C      3.916205   -1.310608   -0.444245
| 26> C      4.254205   -0.583284    0.701262
| 27> C      3.329237    0.325607    1.226332
| 28> C      2.074265    0.485671    0.632545
| 29> C      5.613969   -0.726600    1.318155
| 30> H     -3.267331   -5.444096    0.474908
| 31> H     -3.668363   -4.472292    1.912632
| 32> H     -4.647009   -4.317868    0.454188
| 33> H     -1.393115   -3.468317    2.031026
| 34> H      0.128744   -1.736772    1.202837
| 35> H     -2.252834   -1.349604   -2.371640
| 36> H     -3.784983   -3.088677   -1.534304
| 37> H     -1.779593    0.795773    0.824348
| 38> H     -2.672808    3.008100    1.379303
| 39> H     -0.463721    4.734685   -1.894161
| 40> H      0.432700    2.509278   -2.457169
| 41> H     -2.389549    5.474918    1.196553
| 42> H     -3.120982    5.533238   -0.426370
| 43> H     -1.486597    6.181810   -0.142714
| 44> H      2.413740   -1.722614   -1.930752
| 45> H      4.627560   -2.005305   -0.885728
| 46> H      3.581804    0.919334    2.102518
| 47> H      1.379032    1.198791    1.068159
| 48> H      5.574385   -0.544083    2.397203
| 49> H      6.003069   -1.740147    1.174780
| 50> H      6.308178   -0.013185    0.863590
| 51> **                         ****END OF INPUT****
 Total Charge           Charge          ....    0
 Multiplicity           Mult            ....    1
 Number of Electrons    NEL             ....  170
Dispersion correction           -0.100042858
FINAL SINGLE POINT ENERGY     -1228.876812611200
Dispersion correction             ... done (  0.1 sec)
Dispersion correction           -0.099760961
FINAL SINGLE POINT ENERGY     -1228.883616381895
Dispersion correction             ... done (  0.1 sec)
Dispersion correction           -0.099752914
FINAL SINGLE POINT ENERGY     -1228.884882429814
Dispersion correction             ... done (  0.1 sec)
FINAL SINGLE POINT ENERGY     -1228.885233158349
FINAL SINGLE POINT ENERGY     -1228.885298913641
Dispersion correction             ... done (  0.1 sec)
Dispersion correction           -0.099651871
FINAL SINGLE POINT ENERGY     -1228.885312740689
Dispersion correction             ... done (  0.1 sec)
Dispersion correction           -0.099637646
FINAL SINGLE POINT ENERGY     -1228.885315388465
Dispersion correction             ... done (  0.1 sec)
                    ***********************HURRAY********************

CARTESIAN COORDINATES (ANGSTROEM)
---------------------------------
  C     -3.671610   -4.428005    0.860039
  C     -2.739480   -3.364426    0.332103
  C     -1.721005   -2.824222    1.146300
  C     -0.830949   -1.860136    0.650284
  C     -0.951793   -1.405580   -0.677492
  C     -1.955511   -1.946028   -1.505743
  C     -2.838146   -2.910213   -1.001234
  P      0.123645   -0.122816   -1.417015
  O      0.256952   -0.249557   -2.925605
  C     -0.589738    1.477401   -0.887725
  C     -1.308025    1.657505    0.310570
  C     -1.791662    2.928375    0.655078
  C     -1.582513    4.041519   -0.187056
  C     -0.874399    3.842016   -1.392342
  C     -0.385500    2.577135   -1.744783
  C     -2.135412    5.399606    0.171693
  C      1.723648   -0.257360   -0.538740
  C      2.738361   -0.996468   -1.178546
  C      3.981757   -1.167072   -0.555504
  C      4.247447   -0.602593    0.711216
  C      3.226184    0.146105    1.334517
  C      1.978947    0.325164    0.718097
  C      5.599823   -0.762227    1.362813
  H     -3.255140   -5.443297    0.681353
  H     -3.829597   -4.328253    1.952301
  H     -4.660009   -4.389226    0.360677
  H     -1.619797   -3.171767    2.187100
  H     -0.029753   -1.469638    1.296965
  H     -2.022819   -1.604694   -2.550463
  H     -3.621278   -3.325318   -1.656036
  H     -1.503160    0.798982    0.971894
  H     -2.350919    3.060023    1.595367
  H     -0.707682    4.696635   -2.067722
  H      0.152164    2.418912   -2.692569
  H     -2.198480    5.538895    1.269220
  H     -3.162645    5.528859   -0.233706
  H     -1.515131    6.216593   -0.247362
  H      2.537141   -1.422892   -2.173631
  H      4.768218   -1.748852   -1.062817
  H      3.415733    0.603450    2.319023
  H      1.205873    0.933779    1.212597
  H      5.527624   -0.731788    2.468125
  H      6.082714   -1.716080    1.071653
  H      6.285924    0.057551    1.057105

 Multiplicity           Mult            ....    1
 Number of Electrons    NEL             ....  170
 Basis Dimension        Dim             ....  431

ORBITAL ENERGIES
----------------

  NO   OCC          E(Eh)            E(eV)
   0   2.0000     -76.409420     -2079.2060
   1   2.0000     -18.711450      -509.1645
   2   2.0000      -9.932743      -270.2837
   3   2.0000      -9.932700      -270.2825
   4   2.0000      -9.932683      -270.2820
   5   2.0000      -9.927398      -270.1382
   6   2.0000      -9.927373      -270.1376
   7   2.0000      -9.927306      -270.1357
   8   2.0000      -9.922709      -270.0106
   9   2.0000      -9.922660      -270.0093
  10   2.0000      -9.922611      -270.0080
  11   2.0000      -9.922521      -270.0055
  12   2.0000      -9.922478      -270.0044
  13   2.0000      -9.922455      -270.0037
  14   2.0000      -9.921512      -269.9781
  15   2.0000      -9.921473      -269.9770
  16   2.0000      -9.921471      -269.9770
  17   2.0000      -9.920677      -269.9554
  18   2.0000      -9.920639      -269.9543
  19   2.0000      -9.920635      -269.9542
  20   2.0000      -9.920446      -269.9491
  21   2.0000      -9.920391      -269.9476
  22   2.0000      -9.920329      -269.9459
  23   2.0000      -6.367393      -173.2656
  24   2.0000      -4.588598      -124.8621
  25   2.0000      -4.588595      -124.8620
  26   2.0000      -4.588417      -124.8572
  27   2.0000      -0.845166       -22.9981
  28   2.0000      -0.779197       -21.2030
  29   2.0000      -0.776421       -21.1275
  30   2.0000      -0.776375       -21.1262
  31   2.0000      -0.710424       -19.3316
  32   2.0000      -0.697649       -18.9840
  33   2.0000      -0.697596       -18.9826
  34   2.0000      -0.672618       -18.3029
  35   2.0000      -0.671403       -18.2698
  36   2.0000      -0.671379       -18.2692
  37   2.0000      -0.636758       -17.3271
  38   2.0000      -0.615456       -16.7474
  39   2.0000      -0.615400       -16.7459
  40   2.0000      -0.555569       -15.1178
  41   2.0000      -0.549996       -14.9661
  42   2.0000      -0.546359       -14.8672
  43   2.0000      -0.546301       -14.8656
  44   2.0000      -0.522237       -14.2108
  45   2.0000      -0.522190       -14.2095
  46   2.0000      -0.499015       -13.5789
  47   2.0000      -0.456539       -12.4231
  48   2.0000      -0.456499       -12.4220
  49   2.0000      -0.426636       -11.6094
  50   2.0000      -0.421493       -11.4694
  51   2.0000      -0.420319       -11.4375
  52   2.0000      -0.420283       -11.4365
  53   2.0000      -0.400709       -10.9039
  54   2.0000      -0.400630       -10.9017
  55   2.0000      -0.392492       -10.6803
  56   2.0000      -0.380541       -10.3550
  57   2.0000      -0.380510       -10.3542
  58   2.0000      -0.380069       -10.3422
  59   2.0000      -0.376630       -10.2486
  60   2.0000      -0.375609       -10.2208
  61   2.0000      -0.375551       -10.2193
  62   2.0000      -0.365633        -9.9494
  63   2.0000      -0.365555        -9.9473
  64   2.0000      -0.347819        -9.4646
  65   2.0000      -0.345353        -9.3975
  66   2.0000      -0.345346        -9.3973
  67   2.0000      -0.330695        -8.9987
  68   2.0000      -0.326072        -8.8729
  69   2.0000      -0.325997        -8.8708
  70   2.0000      -0.319779        -8.7016
  71   2.0000      -0.308269        -8.3884
  72   2.0000      -0.303612        -8.2617
  73   2.0000      -0.303581        -8.2609
  74   2.0000      -0.299004        -8.1363
  75   2.0000      -0.298917        -8.1339
  76   2.0000      -0.292148        -7.9497
  77   2.0000      -0.236686        -6.4406
  78   2.0000      -0.236598        -6.4381
  79   2.0000      -0.235670        -6.4129
  80   2.0000      -0.230612        -6.2753
  81   2.0000      -0.230560        -6.2739
  82   2.0000      -0.221125        -6.0171
  83   2.0000      -0.211774        -5.7627
  84   2.0000      -0.211688        -5.7603
  85   0.0000      -0.061411        -1.6711
  86   0.0000      -0.061263        -1.6670
  87   0.0000      -0.051201        -1.3933
  88   0.0000      -0.049668        -1.3515
  89   0.0000      -0.044430        -1.2090

MULLIKEN ATOMIC CHARGES
-----------------------
   0 C :    0.008545
   1 C :   -0.036673
   2 C :   -0.022483
   3 C :   -0.004322
   4 C :   -0.122561
   5 C :    0.012150
   6 C :   -0.021266
   7 P :    0.632158
   8 O :   -0.458403
   9 C :   -0.122753
  10 C :   -0.004203
  11 C :   -0.022405
  12 C :   -0.036716
  13 C :   -0.021230
  14 C :    0.012369
  15 C :    0.008496
  16 C :   -0.122280
  17 C :    0.011819
  18 C :   -0.021351
  19 C :   -0.036811
  20 C :   -0.022608
  21 C :   -0.004011
  22 C :    0.008753
  23 H :    0.056949
  24 H :    0.035467
  25 H :    0.037433
  26 H :   -0.013015
  27 H :    0.001184
  28 H :    0.017849
  29 H :   -0.007328
  30 H :    0.001567
  31 H :   -0.013001
  32 H :   -0.007384
  33 H :    0.017725
  34 H :    0.035423
  35 H :    0.056917
  36 H :    0.037394
  37 H :    0.017867
  38 H :   -0.007366
  39 H :   -0.012955
  40 H :    0.001362
  41 H :    0.035288
  42 H :    0.037526
  43 H :    0.056884
Sum of atomic charges:   -0.0000000

LOEWDIN ATOMIC CHARGES
----------------------
   0 C :   -0.063066
   1 C :   -0.019577
   2 C :   -0.034564
   3 C :   -0.034401
   4 C :   -0.188471
   5 C :   -0.013690
   6 C :   -0.030648
   7 P :    0.886606
   8 O :   -0.492513
   9 C :   -0.188381
  10 C :   -0.034417
  11 C :   -0.034555
  12 C :   -0.019598
  13 C :   -0.030639
  14 C :   -0.013700
  15 C :   -0.063088
  16 C :   -0.188451
  17 C :   -0.013744
  18 C :   -0.030664
  19 C :   -0.019601
  20 C :   -0.034603
  21 C :   -0.034394
  22 C :   -0.063034
  23 H :    0.046776
  24 H :    0.036686
  25 H :    0.037604
  26 H :    0.030194
  27 H :    0.031922
  28 H :    0.038197
  29 H :    0.031766
  30 H :    0.031944
  31 H :    0.030186
  32 H :    0.031747
  33 H :    0.038145
  34 H :    0.036675
  35 H :    0.046744
  36 H :    0.037595
  37 H :    0.038197
  38 H :    0.031755
  39 H :    0.030184
  40 H :    0.031865
  41 H :    0.036617
  42 H :    0.037655
  43 H :    0.046740

  Mayer bond orders larger than 0.100000
B(  0-C ,  1-C ) :   1.0733 B(  0-C , 23-H ) :   0.9460 B(  0-C , 24-H ) :   0.9542
B(  0-C , 25-H ) :   0.9540 B(  1-C ,  2-C ) :   1.3753 B(  1-C ,  6-C ) :   1.3725
B(  2-C ,  3-C ) :   1.3838 B(  2-C , 26-H ) :   0.9760 B(  3-C ,  4-C ) :   1.3565
B(  3-C , 27-H ) :   0.9635 B(  4-C ,  5-C ) :   1.3708 B(  4-C ,  7-P ) :   0.8802
B(  5-C ,  6-C ) :   1.3706 B(  5-C , 28-H ) :   0.9715 B(  6-C , 29-H ) :   0.9787
B(  7-P ,  8-O ) :   1.8759 B(  7-P ,  9-C ) :   0.8808 B(  7-P , 16-C ) :   0.8803
B(  9-C , 10-C ) :   1.3573 B(  9-C , 14-C ) :   1.3705 B( 10-C , 11-C ) :   1.3836
B( 10-C , 30-H ) :   0.9634 B( 11-C , 12-C ) :   1.3755 B( 11-C , 31-H ) :   0.9760
B( 12-C , 13-C ) :   1.3724 B( 12-C , 15-C ) :   1.0733 B( 13-C , 14-C ) :   1.3708
B( 13-C , 32-H ) :   0.9787 B( 14-C , 33-H ) :   0.9715 B( 15-C , 34-H ) :   0.9542
B( 15-C , 35-H ) :   0.9460 B( 15-C , 36-H ) :   0.9540 B( 16-C , 17-C ) :   1.3713
B( 16-C , 21-C ) :   1.3563 B( 17-C , 18-C ) :   1.3702 B( 17-C , 37-H ) :   0.9714
B( 18-C , 19-C ) :   1.3726 B( 18-C , 38-H ) :   0.9788 B( 19-C , 20-C ) :   1.3753
B( 19-C , 22-C ) :   1.0733 B( 20-C , 21-C ) :   1.3842 B( 20-C , 39-H ) :   0.9760
B( 21-C , 40-H ) :   0.9633 B( 22-C , 41-H ) :   0.9542 B( 22-C , 42-H ) :   0.9540
B( 22-C , 43-H ) :   0.9460

Dispersion correction           -0.099631099
FINAL SINGLE POINT ENERGY     -1228.885316465062

DIPOLE MOMENT
-------------

Method             : SCF
Type of density    : Electron Density
Multiplicity       :   1
Irrep              :   0
Energy             : -1228.7856853663806760 Eh
Relativity type    :
Basis              : AO
                                X                 Y                 Z
Electronic contribution:      0.955293496      -0.957723286     -10.984971109
Nuclear contribution   :     -1.098578186       1.096644365      12.613154141
                        -----------------------------------------
Total Dipole Moment    :     -0.143284690       0.138921079       1.628183032
                        -----------------------------------------
Magnitude (a.u.)       :      1.640368725
Magnitude (Debye)      :      4.169485946

Rotational constants in cm-1:             0.007098             0.007070             0.004336
Rotational constants in MHz :           212.786056           211.958767           129.978820

                             ****ORCA TERMINATED NORMALLY****
TOTAL RUN TIME: 0 days 0 hours 2 minutes 53 seconds 705 msec
