                         Program Version 6.0.0  -   RELEASE   -
|  1> ! RIJCOSX M062X def2-TZVP D3ZERO NormalSCF
|  2> %pal
|  3> nprocs 6
|  4> end
|  5>
|  6> * xyz 0 1
|  7>   C           4.50843055542300     -0.75438364063681     -0.23039686077855
|  8>   C           4.03707222851435     -1.03656034467781      1.20506779298565
|  9>   C           2.65639826040114     -0.42005320221175      1.47465270738677
| 10>   C           1.62597159032832     -0.90298777972953      0.43497666215891
| 11>   C           2.09146080316221     -0.61079337116063     -1.00153765830901
| 12>   C           3.47585669625513     -1.22799947457012     -1.26550963741826
| 13>   P          -0.06265202520370     -0.28597354134364      0.89173096830063
| 14>   O          -0.37980270580075     -0.57868867316680      2.35542242654384
| 15>   C          -0.06467457433963      1.54379639288587      0.51496501398185
| 16>   C          -0.44542917130591      1.95041303293701     -0.92210380978961
| 17>   C          -0.32573484254333      3.47281153168007     -1.10890298079219
| 18>   C          -1.15978685926173      4.23714156671854     -0.06910236771109
| 19>   C          -0.79685463749267      3.81557787888612      1.36385643047909
| 20>   C          -0.92287177890019      2.29732206644265      1.55119761696270
| 21>   C          -1.26807247287952     -1.11107211604928     -0.25823100037532
| 22>   C          -1.08313163193604     -2.64255923686690     -0.20636380636592
| 23>   C          -2.16904684196292     -3.38195304661003     -1.00316146636552
| 24>   C          -3.57853226316635     -2.98452161297839     -0.54367798018939
| 25>   C          -3.77311762602793     -1.46475855433130     -0.63070106326400
| 26>   C          -2.69851572575890     -0.71480383886590      0.16984912493368
| 27>   H           4.66645225880504      0.34170413967695     -0.35234520407614
| 28>   H           5.49229573742889     -1.23356754775889     -0.41949667165956
| 29>   H           4.77682364054584     -0.65415526057500      1.93978956805023
| 30>   H           3.97902770085313     -2.13734723265195      1.36233102938584
| 31>   H           2.73870749740157      0.69014249417037      1.42507156521684
| 32>   H           2.28845596820949     -0.66392573637785      2.49130396217868
| 33>   H           1.53026021347961     -2.00617072496718      0.55843473464574
| 34>   H           1.35307373632428     -0.98613247802838     -1.74161503581777
| 35>   H           2.15665920625805      0.49031201370869     -1.14918356541695
| 36>   H           3.81447717380966     -0.98173744383518     -2.29433203927503
| 37>   H           3.39162614019238     -2.33737473878168     -1.21978647364307
| 38>   H           0.99632318011306      1.84476546472015      0.68333755092632
| 39>   H          -1.49546510319504      1.64368383652859     -1.12171670710374
| 40>   H           0.18262817894090      1.42355202394956     -1.66935914215767
| 41>   H          -0.63242832866096      3.75501705562318     -2.13856260473282
| 42>   H           0.74424148410918      3.76571337299915     -1.00930897959997
| 43>   H          -2.23933176954952      4.02739208944907     -0.24630233047315
| 44>   H          -1.02980651793027      5.33241838142788     -0.19958422677659
| 45>   H           0.25071955534676      4.12475072905919      1.58294592613774
| 46>   H          -1.43864150972332      4.34613720218491      2.09876188219312
| 47>   H          -0.63490268857678      1.97706320251439      2.57170990491683
| 48>   H          -1.98787642948262      1.99905895815847      1.42970058404975
| 49>   H          -1.07635567390107     -0.75283458441748     -1.29458268370436
| 50>   H          -0.08086472911825     -2.92399288966275     -0.59140973671321
| 51>   H          -1.11616331904543     -2.95837957176499      0.86007446947952
| 52>   H          -2.02203513854015     -4.47903689817842     -0.91109547834818
| 53>   H          -2.05571671774036     -3.14027916162092     -2.08471959954920
| 54>   H          -4.34747407680735     -3.51229780744368     -1.14669382649852
| 55>   H          -3.72435675410068     -3.31088649413680      0.51072061174476
| 56>   H          -4.78230805968923     -1.17832758935052     -0.26611543345739
| 57>   H          -3.72381806184648     -1.14987054647591     -1.69812868888969
| 58>   H          -2.84147689247953      0.38070776805815      0.06365081373233
| 59>   H          -2.79972087893541     -0.93605706255247      1.25447471286104
| 60> **                         ****END OF INPUT****

CARTESIAN COORDINATES (ANGSTROEM)
---------------------------------
  C      4.508431   -0.754384   -0.230397
  C      4.037072   -1.036560    1.205068
  C      2.656398   -0.420053    1.474653
  C      1.625972   -0.902988    0.434977
  C      2.091461   -0.610793   -1.001538
  C      3.475857   -1.227999   -1.265510
  P     -0.062652   -0.285974    0.891731
  O     -0.379803   -0.578689    2.355422
  C     -0.064675    1.543796    0.514965
  C     -0.445429    1.950413   -0.922104
  C     -0.325735    3.472812   -1.108903
  C     -1.159787    4.237142   -0.069102
  C     -0.796855    3.815578    1.363856
  C     -0.922872    2.297322    1.551198
  C     -1.268072   -1.111072   -0.258231
  C     -1.083132   -2.642559   -0.206364
  C     -2.169047   -3.381953   -1.003161
  C     -3.578532   -2.984522   -0.543678
  C     -3.773118   -1.464759   -0.630701
  C     -2.698516   -0.714804    0.169849
  H      4.666452    0.341704   -0.352345
  H      5.492296   -1.233568   -0.419497
  H      4.776824   -0.654155    1.939790
  H      3.979028   -2.137347    1.362331
  H      2.738707    0.690142    1.425072
  H      2.288456   -0.663926    2.491304
  H      1.530260   -2.006171    0.558435
  H      1.353074   -0.986132   -1.741615
  H      2.156659    0.490312   -1.149184
  H      3.814477   -0.981737   -2.294332
  H      3.391626   -2.337375   -1.219786
  H      0.996323    1.844765    0.683338
  H     -1.495465    1.643684   -1.121717
  H      0.182628    1.423552   -1.669359
  H     -0.632428    3.755017   -2.138563
  H      0.744241    3.765713   -1.009309
  H     -2.239332    4.027392   -0.246302
  H     -1.029807    5.332418   -0.199584
  H      0.250720    4.124751    1.582946
  H     -1.438642    4.346137    2.098762
  H     -0.634903    1.977063    2.571710
  H     -1.987876    1.999059    1.429701
  H     -1.076356   -0.752835   -1.294583
  H     -0.080865   -2.923993   -0.591410
  H     -1.116163   -2.958380    0.860074
  H     -2.022035   -4.479037   -0.911095
  H     -2.055717   -3.140279   -2.084720
  H     -4.347474   -3.512298   -1.146694
  H     -3.724357   -3.310886    0.510721
  H     -4.782308   -1.178328   -0.266115
  H     -3.723818   -1.149871   -1.698129
  H     -2.841477    0.380708    0.063651
  H     -2.799721   -0.936057    1.254475

 Total Charge           Charge          ....    0
 Multiplicity           Mult            ....    1
 Number of Electrons    NEL             ....  164
 Basis Dimension        Dim             ....  824

ORBITAL ENERGIES
----------------

  NO   OCC          E(Eh)            E(eV)
   0   2.0000     -78.074339     -2124.5108
   1   2.0000     -19.551240      -532.0163
   2   2.0000     -10.548018      -287.0262
   3   2.0000     -10.547522      -287.0127
   4   2.0000     -10.547440      -287.0104
   5   2.0000     -10.546433      -286.9830
   6   2.0000     -10.545601      -286.9604
   7   2.0000     -10.540694      -286.8269
   8   2.0000     -10.539790      -286.8023
   9   2.0000     -10.539144      -286.7847
  10   2.0000     -10.536876      -286.7230
  11   2.0000     -10.536706      -286.7184
  12   2.0000     -10.536341      -286.7084
  13   2.0000     -10.535739      -286.6920
  14   2.0000     -10.535283      -286.6796
  15   2.0000     -10.534965      -286.6710
  16   2.0000     -10.534581      -286.6605
  17   2.0000     -10.532893      -286.6146
  18   2.0000     -10.532646      -286.6079
  19   2.0000     -10.531807      -286.5850
  20   2.0000      -6.881702      -187.2606
  21   2.0000      -4.998537      -136.0171
  22   2.0000      -4.998411      -136.0137
  23   2.0000      -4.996973      -135.9746
  24   2.0000      -1.045767       -28.4568
  25   2.0000      -0.939904       -25.5761
  26   2.0000      -0.933204       -25.3938
  27   2.0000      -0.931060       -25.3354
  28   2.0000      -0.857039       -23.3212
  29   2.0000      -0.839411       -22.8415
  30   2.0000      -0.838315       -22.8117
  31   2.0000      -0.836159       -22.7531
  32   2.0000      -0.834318       -22.7029
  33   2.0000      -0.831772       -22.6337
  34   2.0000      -0.725478       -19.7413
  35   2.0000      -0.699786       -19.0422
  36   2.0000      -0.696854       -18.9624
  37   2.0000      -0.692291       -18.8382
  38   2.0000      -0.686028       -18.6678
  39   2.0000      -0.684894       -18.6369
  40   2.0000      -0.638483       -17.3740
  41   2.0000      -0.636458       -17.3189
  42   2.0000      -0.630322       -17.1519
  43   2.0000      -0.598941       -16.2980
  44   2.0000      -0.552354       -15.0303
  45   2.0000      -0.549796       -14.9607
  46   2.0000      -0.540953       -14.7201
  47   2.0000      -0.515879       -14.0378
  48   2.0000      -0.513765       -13.9802
  49   2.0000      -0.510475       -13.8907
  50   2.0000      -0.510300       -13.8860
  51   2.0000      -0.507582       -13.8120
  52   2.0000      -0.502914       -13.6850
  53   2.0000      -0.500861       -13.6291
  54   2.0000      -0.498568       -13.5667
  55   2.0000      -0.478047       -13.0083
  56   2.0000      -0.458482       -12.4759
  57   2.0000      -0.454392       -12.3646
  58   2.0000      -0.446508       -12.1501
  59   2.0000      -0.444139       -12.0856
  60   2.0000      -0.442796       -12.0491
  61   2.0000      -0.442206       -12.0330
  62   2.0000      -0.433269       -11.7898
  63   2.0000      -0.424725       -11.5573
  64   2.0000      -0.423011       -11.5107
  65   2.0000      -0.410449       -11.1689
  66   2.0000      -0.407853       -11.0982
  67   2.0000      -0.406096       -11.0504
  68   2.0000      -0.401562       -10.9271
  69   2.0000      -0.400044       -10.8858
  70   2.0000      -0.398497       -10.8437
  71   2.0000      -0.382896       -10.4191
  72   2.0000      -0.377643       -10.2762
  73   2.0000      -0.376065       -10.2332
  74   2.0000      -0.370494       -10.0817
  75   2.0000      -0.362475        -9.8634
  76   2.0000      -0.360729        -9.8159
  77   2.0000      -0.358939        -9.7672
  78   2.0000      -0.357211        -9.7202
  79   2.0000      -0.352220        -9.5844
  80   2.0000      -0.305919        -8.3245
  81   2.0000      -0.305600        -8.3158
  82   0.0000       0.045240         1.2310
  83   0.0000       0.054631         1.4866
  84   0.0000       0.062456         1.6995
  85   0.0000       0.072624         1.9762
  86   0.0000       0.075917         2.0658

MULLIKEN ATOMIC CHARGES
-----------------------
   0 C :   -0.271125
   1 C :   -0.274176
   2 C :   -0.356474
   3 C :   -0.239878
   4 C :   -0.363878
   5 C :   -0.275959
   6 P :    0.731765
   7 O :   -0.604172
   8 C :   -0.311178
   9 C :   -0.347454
  10 C :   -0.270651
  11 C :   -0.268822
  12 C :   -0.270138
  13 C :   -0.311008
  14 C :   -0.198671
  15 C :   -0.374992
  16 C :   -0.276292
  17 C :   -0.275504
  18 C :   -0.269296
  19 C :   -0.371389
  20 H :    0.140379
  21 H :    0.146027
  22 H :    0.145311
  23 H :    0.148410
  24 H :    0.155381
  25 H :    0.191952
  26 H :    0.188080
  27 H :    0.172398
  28 H :    0.161513
  29 H :    0.144234
  30 H :    0.149737
  31 H :    0.166542
  32 H :    0.160293
  33 H :    0.172011
  34 H :    0.144168
  35 H :    0.146319
  36 H :    0.140311
  37 H :    0.144997
  38 H :    0.143509
  39 H :    0.146132
  40 H :    0.188657
  41 H :    0.162929
  42 H :    0.185649
  43 H :    0.147172
  44 H :    0.200688
  45 H :    0.145028
  46 H :    0.140931
  47 H :    0.142943
  48 H :    0.149573
  49 H :    0.145025
  50 H :    0.141381
  51 H :    0.134478
  52 H :    0.207135
Sum of atomic charges:   -0.0000000

LOEWDIN ATOMIC CHARGES
----------------------
   0 C :   -0.271726
   1 C :   -0.269001
   2 C :   -0.261601
   3 C :   -0.345187
   4 C :   -0.269239
   5 C :   -0.266991
   6 P :    0.664308
   7 O :   -0.327804
   8 C :   -0.338994
   9 C :   -0.270385
  10 C :   -0.267595
  11 C :   -0.271920
  12 C :   -0.269697
  13 C :   -0.261200
  14 C :   -0.341041
  15 C :   -0.265131
  16 C :   -0.269572
  17 C :   -0.271302
  18 C :   -0.269147
  19 C :   -0.265496
  20 H :    0.139581
  21 H :    0.138034
  22 H :    0.139076
  23 H :    0.141326
  24 H :    0.138898
  25 H :    0.152045
  26 H :    0.162930
  27 H :    0.139510
  28 H :    0.143653
  29 H :    0.138223
  30 H :    0.141068
  31 H :    0.158082
  32 H :    0.142835
  33 H :    0.137046
  34 H :    0.138261
  35 H :    0.140148
  36 H :    0.139813
  37 H :    0.137487
  38 H :    0.139886
  39 H :    0.139129
  40 H :    0.151097
  41 H :    0.142744
  42 H :    0.152139
  43 H :    0.137687
  44 H :    0.152979
  45 H :    0.138931
  46 H :    0.139247
  47 H :    0.137229
  48 H :    0.142710
  49 H :    0.139260
  50 H :    0.138798
  51 H :    0.134093
  52 H :    0.154778

  Mayer bond orders larger than 0.100000
B(  0-C ,  1-C ) :   0.9140 B(  0-C ,  5-C ) :   0.9197 B(  0-C , 20-H ) :   0.9792
B(  0-C , 21-H ) :   0.9823 B(  1-C ,  2-C ) :   0.9118 B(  1-C , 22-H ) :   0.9869
B(  1-C , 23-H ) :   0.9800 B(  2-C ,  3-C ) :   0.9130 B(  2-C , 24-H ) :   0.9806
B(  2-C , 25-H ) :   0.9748 B(  3-C ,  4-C ) :   0.8493 B(  3-C ,  6-P ) :   0.8873
B(  3-C , 26-H ) :   0.9420 B(  4-C ,  5-C ) :   0.9295 B(  4-C , 27-H ) :   0.9800
B(  4-C , 28-H ) :   0.9693 B(  5-C , 29-H ) :   0.9838 B(  5-C , 30-H ) :   0.9839
B(  6-P ,  7-O ) :   1.9353 B(  6-P ,  8-C ) :   0.8772 B(  6-P , 14-C ) :   0.8733
B(  8-C ,  9-C ) :   0.8718 B(  8-C , 13-C ) :   0.8925 B(  8-C , 31-H ) :   0.9451
B(  9-C , 10-C ) :   0.9227 B(  9-C , 32-H ) :   0.9710 B(  9-C , 33-H ) :   0.9828
B( 10-C , 11-C ) :   0.9233 B( 10-C , 34-H ) :   0.9836 B( 10-C , 35-H ) :   0.9837
B( 11-C , 12-C ) :   0.9128 B( 11-C , 36-H ) :   0.9791 B( 11-C , 37-H ) :   0.9826
B( 12-C , 13-C ) :   0.9018 B( 12-C , 38-H ) :   0.9795 B( 12-C , 39-H ) :   0.9881
B( 13-C , 40-H ) :   0.9780 B( 13-C , 41-H ) :   0.9797 B( 14-C , 15-C ) :   0.8664
B( 14-C , 19-C ) :   0.8879 B( 14-C , 42-H ) :   0.9269 B( 15-C , 16-C ) :   0.9255
B( 15-C , 43-H ) :   0.9800 B( 15-C , 44-H ) :   0.9718 B( 16-C , 17-C ) :   0.9242
B( 16-C , 45-H ) :   0.9852 B( 16-C , 46-H ) :   0.9819 B( 17-C , 18-C ) :   0.9244
B( 17-C , 47-H ) :   0.9828 B( 17-C , 48-H ) :   0.9783 B( 18-C , 19-C ) :   0.9190
B( 18-C , 49-H ) :   0.9850 B( 18-C , 50-H ) :   0.9826 B( 19-C , 51-H ) :   0.9830
B( 19-C , 52-H ) :   0.9674

Dispersion correction           -0.004085905
FINAL SINGLE POINT ENERGY     -1122.358485603764

DIPOLE MOMENT
-------------

Method             : SCF
Type of density    : Electron Density
Multiplicity       :   1
Irrep              :   0
Energy             : -1122.3543996983264606 Eh
Relativity type    :
Basis              : AO
                                X                 Y                 Z
Electronic contribution:     -0.665248604      -2.396799107       7.534259990
Nuclear contribution   :      1.008910676       2.675311920      -9.024093669
                        -----------------------------------------
Total Dipole Moment    :      0.343662072       0.278512813      -1.489833679
                        -----------------------------------------
Magnitude (a.u.)       :      1.554116276
Magnitude (Debye)      :      3.950249642

Rotational constants in cm-1:             0.010116             0.008921             0.005816
Rotational constants in MHz :           303.283694           267.452588           174.358242

                             ****ORCA TERMINATED NORMALLY****
TOTAL RUN TIME: 0 days 0 hours 3 minutes 14 seconds 3 msec
