                         Program Version 6.0.0  -   RELEASE   -
|  1> ! RIJONX B3LYP def2-SVP D3BJ TIGHTSCF Opt
|  2> %pal
|  3> nprocs 6
|  4> end
|  5>
|  6> * xyz 0 1
|  7> C     -1.245699   -1.033442   -0.126558
|  8> P     -0.066982    0.141767   -0.897138
|  9> C     -0.281949    1.584298    0.215145
| 10> C      1.515420   -0.524977   -0.252360
| 11> H     -1.078237   -1.129437    0.950370
| 12> H     -2.274989   -0.697080   -0.282251
| 13> H     -1.143197   -2.025279   -0.576637
| 14> H     -1.271052    2.029818    0.073701
| 15> H      0.467609    2.349995   -0.005515
| 16> H     -0.182354    1.303963    1.268011
| 17> H      2.339926    0.152764   -0.492514
| 18> H      1.488444   -0.656778    0.833428
| 19> H      1.733059   -1.495612   -0.707683
| 20> **                         ****END OF INPUT****
 Total Charge           Charge          ....    0
 Multiplicity           Mult            ....    1
 Number of Electrons    NEL             ....   42
Dispersion correction           -0.017770158
FINAL SINGLE POINT ENERGY      -460.782743240856
Dispersion correction             ... done (  0.1 sec)
Dispersion correction           -0.017702843
FINAL SINGLE POINT ENERGY      -460.783872007358
Dispersion correction             ... done (  0.1 sec)
Dispersion correction           -0.017654500
FINAL SINGLE POINT ENERGY      -460.784123934062
Dispersion correction             ... done (  0.1 sec)
Dispersion correction           -0.017635390
FINAL SINGLE POINT ENERGY      -460.784166365320
Dispersion correction             ... done (  0.1 sec)
Dispersion correction           -0.017634068
FINAL SINGLE POINT ENERGY      -460.784171731345
Dispersion correction             ... done (  0.1 sec)
                    ***********************HURRAY********************

CARTESIAN COORDINATES (ANGSTROEM)
---------------------------------
  C     -1.255341   -1.042980   -0.120683
  P     -0.069125    0.146279   -0.925833
  C     -0.283719    1.596137    0.223824
  C      1.528324   -0.530343   -0.247450
  H     -1.084780   -1.138242    0.965403
  H     -2.289209   -0.701838   -0.288440
  H     -1.151619   -2.036851   -0.584215
  H     -1.278485    2.043691    0.070354
  H      0.469010    2.365696   -0.009798
  H     -0.182480    1.311177    1.285089
  H      2.354393    0.153286   -0.499777
  H      1.498651   -0.662515    0.847695
  H      1.744378   -1.503497   -0.716169

 Multiplicity           Mult            ....    1
 Number of Electrons    NEL             ....   42
 Basis Dimension        Dim             ....  105

ORBITAL ENERGIES
----------------

  NO   OCC          E(Eh)            E(eV)
   0   2.0000     -77.035118     -2096.2321
   1   2.0000     -10.178668      -276.9756
   2   2.0000     -10.178653      -276.9752
   3   2.0000     -10.178587      -276.9734
   4   2.0000      -6.533084      -177.7743
   5   2.0000      -4.698435      -127.8509
   6   2.0000      -4.698434      -127.8509
   7   2.0000      -4.695363      -127.7673
   8   2.0000      -0.747470       -20.3397
   9   2.0000      -0.674556       -18.3556
  10   2.0000      -0.674550       -18.3554
  11   2.0000      -0.521195       -14.1824
  12   2.0000      -0.430002       -11.7009
  13   2.0000      -0.418602       -11.3907
  14   2.0000      -0.418593       -11.3905
  15   2.0000      -0.392432       -10.6786
  16   2.0000      -0.392425       -10.6784
  17   2.0000      -0.380116       -10.3435
  18   2.0000      -0.321408        -8.7459
  19   2.0000      -0.321399        -8.7457
  20   2.0000      -0.221294        -6.0217
  21   0.0000       0.054006         1.4696
  22   0.0000       0.065455         1.7811
  23   0.0000       0.065463         1.7813
  24   0.0000       0.097503         2.6532
  25   0.0000       0.114852         3.1253

MULLIKEN ATOMIC CHARGES
-----------------------
   0 C :   -0.154981
   1 P :    0.124871
   2 C :   -0.154877
   3 C :   -0.155172
   4 H :    0.029194
   5 H :    0.042085
   6 H :    0.042085
   7 H :    0.042063
   8 H :    0.042068
   9 H :    0.029168
  10 H :    0.042133
  11 H :    0.029224
  12 H :    0.042139
Sum of atomic charges:   -0.0000000

LOEWDIN ATOMIC CHARGES
----------------------
   0 C :   -0.215146
   1 P :    0.440396
   2 C :   -0.215124
   3 C :   -0.215175
   4 H :    0.016263
   5 H :    0.026043
   6 H :    0.026040
   7 H :    0.026030
   8 H :    0.026041
   9 H :    0.016258
  10 H :    0.026052
  11 H :    0.016262
  12 H :    0.026061

  Mayer bond orders larger than 0.100000
B(  0-C ,  1-P ) :   0.9852 B(  0-C ,  4-H ) :   0.9561 B(  0-C ,  5-H ) :   0.9698
B(  0-C ,  6-H ) :   0.9698 B(  1-P ,  2-C ) :   0.9853 B(  1-P ,  3-C ) :   0.9853
B(  2-C ,  7-H ) :   0.9698 B(  2-C ,  8-H ) :   0.9698 B(  2-C ,  9-H ) :   0.9561
B(  3-C , 10-H ) :   0.9698 B(  3-C , 11-H ) :   0.9561 B(  3-C , 12-H ) :   0.9698

Dispersion correction           -0.017636476
FINAL SINGLE POINT ENERGY      -460.784173205277

DIPOLE MOMENT
-------------

Method             : SCF
Type of density    : Electron Density
Multiplicity       :   1
Irrep              :   0
Energy             :  -460.7665367295849137 Eh
Relativity type    :
Basis              : AO
                                X                 Y                 Z
Electronic contribution:     -0.322337028       0.682319659      -4.318944283
Nuclear contribution   :      0.353976214      -0.749258916       4.742053289
                        -----------------------------------------
Total Dipole Moment    :      0.031639186      -0.066939257       0.423109006
                        -----------------------------------------
Magnitude (a.u.)       :      0.429538279
Magnitude (Debye)      :      1.091799538

Rotational constants in cm-1:             0.189935             0.189930             0.122286
Rotational constants in MHz :          5694.105064          5693.969609          3666.036794

                             ****ORCA TERMINATED NORMALLY****
TOTAL RUN TIME: 0 days 0 hours 0 minutes 18 seconds 757 msec
