                         Program Version 6.0.0  -   RELEASE   -
|  1> ! RIJCOSX M062X def2-TZVP D3ZERO NormalSCF
|  2> %pal
|  3> nprocs 6
|  4> end
|  5>
|  6> * xyz 0 1
|  7>   C          -2.18837707726764      1.36444911980876      0.41126687893542
|  8>   P          -1.38782559221037      0.22254842561184     -0.78430394364221
|  9>   O          -1.47580964439995      0.66907126900666     -2.23028215805712
| 10>   C          -2.14683055045112     -1.41618196099247     -0.44905432475037
| 11>   C           0.34889682491938      0.06943712411980     -0.20622185999743
| 12>   C           0.71037754458216     -0.32646081791191      1.09799103468491
| 13>   C           2.06510404922163     -0.41768369031467      1.45425620003945
| 14>   C           3.06223025404656     -0.11395326538415      0.51009624856629
| 15>   C           2.70439118621117      0.28123204992007     -0.78997507920007
| 16>   C           1.35005029894250      0.37334226131423     -1.14942418118403
| 17>   H          -3.26335119128842      1.45001884428959      0.15625719087904
| 18>   H          -2.08112582203371      1.01917113120427      1.45867324532667
| 19>   H          -1.71649905108146      2.36016762164471      0.30159295937905
| 20>   H          -1.65253877645644     -2.16178109486166     -1.10167817792157
| 21>   H          -2.03464205610674     -1.72147409691256      0.61010682720525
| 22>   H          -3.22242946918373     -1.37079394723645     -0.71155852556358
| 23>   H          -0.06283395713139     -0.56680041092899      1.84590169167804
| 24>   H           2.34583884878327     -0.72695272528973      2.47292502878687
| 25>   H           4.12413146737110     -0.18623091396934      0.79159626702371
| 26>   H           3.48560694094470      0.51907822205106     -1.52842221259103
| 27>   H           1.03563477258852      0.67979685483093     -2.15974110959729
| 28> **                         ****END OF INPUT****

CARTESIAN COORDINATES (ANGSTROEM)
---------------------------------
  C     -2.188377    1.364449    0.411267
  P     -1.387826    0.222548   -0.784304
  O     -1.475810    0.669071   -2.230282
  C     -2.146831   -1.416182   -0.449054
  C      0.348897    0.069437   -0.206222
  C      0.710378   -0.326461    1.097991
  C      2.065104   -0.417684    1.454256
  C      3.062230   -0.113953    0.510096
  C      2.704391    0.281232   -0.789975
  C      1.350050    0.373342   -1.149424
  H     -3.263351    1.450019    0.156257
  H     -2.081126    1.019171    1.458673
  H     -1.716499    2.360168    0.301593
  H     -1.652539   -2.161781   -1.101678
  H     -2.034642   -1.721474    0.610107
  H     -3.222429   -1.370794   -0.711559
  H     -0.062834   -0.566800    1.845902
  H      2.345839   -0.726953    2.472925
  H      4.124131   -0.186231    0.791596
  H      3.485607    0.519078   -1.528422
  H      1.035635    0.679797   -2.159741

 Total Charge           Charge          ....    0
 Multiplicity           Mult            ....    1
 Number of Electrons    NEL             ....   82
 Basis Dimension        Dim             ....  382

ORBITAL ENERGIES
----------------

  NO   OCC          E(Eh)            E(eV)
   0   2.0000     -78.094522     -2125.0600
   1   2.0000     -19.562505      -532.3228
   2   2.0000     -10.566851      -287.5386
   3   2.0000     -10.561394      -287.3902
   4   2.0000     -10.560623      -287.3692
   5   2.0000     -10.559459      -287.3375
   6   2.0000     -10.557666      -287.2887
   7   2.0000     -10.556822      -287.2657
   8   2.0000     -10.549855      -287.0761
   9   2.0000     -10.549845      -287.0759
  10   2.0000      -6.900477      -187.7715
  11   2.0000      -5.017786      -136.5409
  12   2.0000      -5.017421      -136.5310
  13   2.0000      -5.015844      -136.4880
  14   2.0000      -1.059270       -28.8242
  15   2.0000      -0.965027       -26.2597
  16   2.0000      -0.865259       -23.5449
  17   2.0000      -0.850025       -23.1304
  18   2.0000      -0.830550       -22.6004
  19   2.0000      -0.797399       -21.6983
  20   2.0000      -0.701096       -19.0778
  21   2.0000      -0.694363       -18.8946
  22   2.0000      -0.627158       -17.0658
  23   2.0000      -0.585165       -15.9232
  24   2.0000      -0.530352       -14.4316
  25   2.0000      -0.527865       -14.3639
  26   2.0000      -0.513967       -13.9858
  27   2.0000      -0.502179       -13.6650
  28   2.0000      -0.498440       -13.5632
  29   2.0000      -0.494084       -13.4447
  30   2.0000      -0.483195       -13.1484
  31   2.0000      -0.461779       -12.5657
  32   2.0000      -0.449803       -12.2398
  33   2.0000      -0.429891       -11.6979
  34   2.0000      -0.428542       -11.6612
  35   2.0000      -0.409288       -11.1373
  36   2.0000      -0.402025       -10.9396
  37   2.0000      -0.333665        -9.0795
  38   2.0000      -0.333540        -9.0761
  39   2.0000      -0.318460        -8.6657
  40   2.0000      -0.318076        -8.6553
  41   0.0000      -0.006423        -0.1748
  42   0.0000       0.007307         0.1988
  43   0.0000       0.050080         1.3628
  44   0.0000       0.079461         2.1622
  45   0.0000       0.091157         2.4805

MULLIKEN ATOMIC CHARGES
-----------------------
   0 C :   -0.500842
   1 P :    0.662793
   2 O :   -0.602842
   3 C :   -0.501317
   4 C :   -0.088455
   5 C :   -0.178675
   6 C :   -0.158987
   7 C :   -0.136317
   8 C :   -0.137645
   9 C :   -0.150039
  10 H :    0.167710
  11 H :    0.153139
  12 H :    0.176550
  13 H :    0.176749
  14 H :    0.153252
  15 H :    0.167584
  16 H :    0.153761
  17 H :    0.146499
  18 H :    0.149310
  19 H :    0.150878
  20 H :    0.196894
Sum of atomic charges:   -0.0000000

LOEWDIN ATOMIC CHARGES
----------------------
   0 C :   -0.426799
   1 P :    0.550888
   2 O :   -0.322321
   3 C :   -0.426774
   4 C :   -0.240756
   5 C :   -0.139901
   6 C :   -0.141987
   7 C :   -0.133214
   8 C :   -0.136087
   9 C :   -0.117897
  10 H :    0.131038
  11 H :    0.123734
  12 H :    0.135078
  13 H :    0.135088
  14 H :    0.123747
  15 H :    0.131007
  16 H :    0.146012
  17 H :    0.148418
  18 H :    0.148757
  19 H :    0.149679
  20 H :    0.162291

  Mayer bond orders larger than 0.100000
B(  0-C ,  1-P ) :   0.9422 B(  0-C , 10-H ) :   0.9430 B(  0-C , 11-H ) :   0.9366
B(  0-C , 12-H ) :   0.9441 B(  1-P ,  2-O ) :   1.9373 B(  1-P ,  3-C ) :   0.9424
B(  1-P ,  4-C ) :   0.8984 B(  3-C , 13-H ) :   0.9442 B(  3-C , 14-H ) :   0.9365
B(  3-C , 15-H ) :   0.9429 B(  4-C ,  5-C ) :   1.3774 B(  4-C ,  9-C ) :   1.4207
B(  5-C ,  6-C ) :   1.5075 B(  5-C , 16-H ) :   0.9100 B(  6-C ,  7-C ) :   1.4380
B(  6-C , 17-H ) :   0.9463 B(  7-C ,  8-C ) :   1.4396 B(  7-C , 18-H ) :   0.9452
B(  8-C ,  9-C ) :   1.4286 B(  8-C , 19-H ) :   0.9479 B(  9-C , 20-H ) :   0.9082

Dispersion correction           -0.000763335
FINAL SINGLE POINT ENERGY      -728.063973662335

DIPOLE MOMENT
-------------

Method             : SCF
Type of density    : Electron Density
Multiplicity       :   1
Irrep              :   0
Energy             :  -728.0632103272516815 Eh
Relativity type    :
Basis              : AO
                                X                 Y                 Z
Electronic contribution:      1.982110294       1.252387811      -3.952013680
Nuclear contribution   :     -1.713757998      -1.748658719       5.566309691
                        -----------------------------------------
Total Dipole Moment    :      0.268352296      -0.496270908       1.614296011
                        -----------------------------------------
Magnitude (a.u.)       :      1.710043678
Magnitude (Debye)      :      4.346585601

Rotational constants in cm-1:             0.074199             0.025518             0.022587
Rotational constants in MHz :          2224.436892           765.019547           677.139902

                             ****ORCA TERMINATED NORMALLY****
TOTAL RUN TIME: 0 days 0 hours 0 minutes 38 seconds 529 msec
