                         Program Version 6.0.0  -   RELEASE   -
|  1> ! RI BP86 def2-SVP D3BJ TIGHTSCF Opt
|  2> %pal
|  3> nprocs 6
|  4> end
|  5>
|  6> * xyz 0 1
|  7> C     -2.349430   -3.813781    0.889988
|  8> C     -1.405473   -3.995163   -0.118065
|  9> C     -0.720100   -2.896262   -0.635960
| 10> C     -0.968399   -1.601937   -0.150508
| 11> C     -1.925528   -1.433211    0.861043
| 12> C     -2.610709   -2.534757    1.377853
| 13> P     -0.025479   -0.218202   -0.854162
| 14> O      0.157391   -0.448939   -2.345737
| 15> C     -0.967684    1.281194   -0.511183
| 16> C     -0.708224    2.101132    0.596666
| 17> C     -1.478876    3.242222    0.828735
| 18> C     -2.514820    3.576220   -0.041665
| 19> C     -2.781042    2.772941   -1.148024
| 20> C     -2.011649    1.633279   -1.381776
| 21> C      1.551939   -0.151631    0.020652
| 22> C      1.693593   -0.720634    1.300982
| 23> C      2.927833   -0.729040    1.956489
| 24> C      4.048446   -0.176373    1.344999
| 25> C      3.932345    0.398255    0.081831
| 26> C      2.690203    0.426760   -0.570317
| 27> C      2.658982    1.086599   -1.888825
| 28> O      3.487089    0.968638   -2.770303
| 29> O      1.641437    1.957210   -1.958456
| 30> H     -2.887079   -4.669391    1.290715
| 31> H     -1.206402   -4.991013   -0.506050
| 32> H      0.009604   -3.043375   -1.431308
| 33> H     -2.151951   -0.446589    1.256872
| 34> H     -3.353807   -2.394458    2.159177
| 35> H      0.097744    1.866266    1.286398
| 36> H     -1.267400    3.875283    1.687007
| 37> H     -3.111216    4.466909    0.138833
| 38> H     -3.584460    3.035114   -1.831720
| 39> H     -2.219121    1.011838   -2.251958
| 40> H      0.845179   -1.180321    1.802953
| 41> H      3.015748   -1.181558    2.941972
| 42> H      5.011561   -0.193660    1.849241
| 43> H      4.809670    0.831421   -0.395732
| 44> H      1.670085    2.289011   -2.880657
| 45> **                         ****END OF INPUT****
 Total Charge           Charge          ....    0
 Multiplicity           Mult            ....    1
 Number of Electrons    NEL             ....  168
Dispersion correction           -0.096476164
FINAL SINGLE POINT ENERGY     -1299.452754638765
Dispersion correction             ... done (  0.1 sec)
Dispersion correction           -0.096417824
FINAL SINGLE POINT ENERGY     -1299.459239149428
Dispersion correction             ... done (  0.1 sec)
Dispersion correction           -0.096350448
FINAL SINGLE POINT ENERGY     -1299.459924398856
Dispersion correction             ... done (  0.1 sec)
FINAL SINGLE POINT ENERGY     -1299.460611078869
FINAL SINGLE POINT ENERGY     -1299.461040454333
FINAL SINGLE POINT ENERGY     -1299.461175090826
FINAL SINGLE POINT ENERGY     -1299.461189466726
FINAL SINGLE POINT ENERGY     -1299.461227089100
Dispersion correction             ... done (  0.1 sec)
Dispersion correction           -0.096452209
FINAL SINGLE POINT ENERGY     -1299.461236095186
Dispersion correction             ... done (  0.1 sec)
Dispersion correction           -0.096457480
FINAL SINGLE POINT ENERGY     -1299.461239977016
Dispersion correction             ... done (  0.1 sec)
                    ***********************HURRAY********************

CARTESIAN COORDINATES (ANGSTROEM)
---------------------------------
  C     -2.324653   -3.765732    1.032161
  C     -1.537449   -3.961656   -0.116120
  C     -0.855739   -2.879999   -0.694232
  C     -0.954360   -1.597620   -0.116984
  C     -1.757355   -1.398549    1.024181
  C     -2.437980   -2.484293    1.598747
  P     -0.017328   -0.257071   -0.949436
  O      0.188007   -0.559473   -2.423371
  C     -0.972924    1.257718   -0.586333
  C     -0.807013    1.997495    0.599906
  C     -1.598736    3.134473    0.829693
  C     -2.548463    3.535123   -0.125748
  C     -2.703820    2.802373   -1.315897
  C     -1.916410    1.664727   -1.549385
  C      1.556839   -0.130151    0.018649
  C      1.694073   -0.823224    1.238658
  C      2.922687   -0.856780    1.918526
  C      4.048452   -0.228499    1.364458
  C      3.933683    0.444967    0.140604
  C      2.695029    0.524387   -0.523721
  C      2.679726    1.284717   -1.818311
  O      3.605285    1.315125   -2.607839
  O      1.534483    1.989866   -1.978566
  H     -2.861620   -4.614691    1.482673
  H     -1.460411   -4.962768   -0.567552
  H     -0.251337   -3.003089   -1.606155
  H     -1.859389   -0.391718    1.457618
  H     -3.066897   -2.327706    2.488611
  H     -0.045792    1.694369    1.335807
  H     -1.467552    3.716369    1.754964
  H     -3.165871    4.428523    0.054602
  H     -3.440984    3.123268   -2.068054
  H     -2.009103    1.086651   -2.482026
  H      0.831118   -1.362974    1.655175
  H      3.001617   -1.396295    2.874645
  H      5.019417   -0.270092    1.880681
  H      4.804441    0.928932   -0.325877
  H      1.546326    2.343295   -2.894752

 Multiplicity           Mult            ....    1
 Number of Electrons    NEL             ....  168
 Basis Dimension        Dim             ....  401

ORBITAL ENERGIES
----------------

  NO   OCC          E(Eh)            E(eV)
   0   2.0000     -76.420734     -2079.5139
   1   2.0000     -18.824941      -512.2527
   2   2.0000     -18.766903      -510.6734
   3   2.0000     -18.719633      -509.3871
   4   2.0000     -10.037051      -273.1220
   5   2.0000      -9.946954      -270.6704
   6   2.0000      -9.942383      -270.5460
   7   2.0000      -9.939522      -270.4682
   8   2.0000      -9.939144      -270.4579
   9   2.0000      -9.938347      -270.4362
  10   2.0000      -9.937351      -270.4091
  11   2.0000      -9.934818      -270.3401
  12   2.0000      -9.933714      -270.3101
  13   2.0000      -9.932827      -270.2860
  14   2.0000      -9.932103      -270.2663
  15   2.0000      -9.931429      -270.2479
  16   2.0000      -9.931214      -270.2421
  17   2.0000      -9.930307      -270.2174
  18   2.0000      -9.930231      -270.2153
  19   2.0000      -9.929986      -270.2086
  20   2.0000      -9.929923      -270.2069
  21   2.0000      -9.929773      -270.2029
  22   2.0000      -9.929575      -270.1975
  23   2.0000      -6.378200      -173.5596
  24   2.0000      -4.599636      -125.1624
  25   2.0000      -4.599437      -125.1570
  26   2.0000      -4.599070      -125.1470
  27   2.0000      -1.003019       -27.2935
  28   2.0000      -0.915545       -24.9133
  29   2.0000      -0.853731       -23.2312
  30   2.0000      -0.791728       -21.5440
  31   2.0000      -0.782152       -21.2834
  32   2.0000      -0.779709       -21.2170
  33   2.0000      -0.704291       -19.1647
  34   2.0000      -0.700114       -19.0511
  35   2.0000      -0.682648       -18.5758
  36   2.0000      -0.679628       -18.4936
  37   2.0000      -0.678467       -18.4620
  38   2.0000      -0.676471       -18.4077
  39   2.0000      -0.605572       -16.4785
  40   2.0000      -0.587467       -15.9858
  41   2.0000      -0.557171       -15.1614
  42   2.0000      -0.553219       -15.0539
  43   2.0000      -0.550184       -14.9713
  44   2.0000      -0.543546       -14.7906
  45   2.0000      -0.535576       -14.5738
  46   2.0000      -0.509341       -13.8599
  47   2.0000      -0.481556       -13.1038
  48   2.0000      -0.475660       -12.9434
  49   2.0000      -0.455192       -12.3864
  50   2.0000      -0.438120       -11.9219
  51   2.0000      -0.427571       -11.6348
  52   2.0000      -0.419997       -11.4287
  53   2.0000      -0.417644       -11.3647
  54   2.0000      -0.415954       -11.3187
  55   2.0000      -0.408274       -11.1097
  56   2.0000      -0.404747       -11.0137
  57   2.0000      -0.397845       -10.8259
  58   2.0000      -0.393174       -10.6988
  59   2.0000      -0.384980       -10.4758
  60   2.0000      -0.384951       -10.4750
  61   2.0000      -0.380970       -10.3667
  62   2.0000      -0.379533       -10.3276
  63   2.0000      -0.355366        -9.6700
  64   2.0000      -0.348798        -9.4913
  65   2.0000      -0.343116        -9.3367
  66   2.0000      -0.342379        -9.3166
  67   2.0000      -0.334893        -9.1129
  68   2.0000      -0.325715        -8.8631
  69   2.0000      -0.318802        -8.6750
  70   2.0000      -0.315738        -8.5917
  71   2.0000      -0.311573        -8.4783
  72   2.0000      -0.305825        -8.3219
  73   2.0000      -0.302653        -8.2356
  74   2.0000      -0.278786        -7.5862
  75   2.0000      -0.255794        -6.9605
  76   2.0000      -0.253303        -6.8927
  77   2.0000      -0.247927        -6.7464
  78   2.0000      -0.242103        -6.5880
  79   2.0000      -0.241490        -6.5713
  80   2.0000      -0.238692        -6.4951
  81   2.0000      -0.229224        -6.2375
  82   2.0000      -0.221460        -6.0262
  83   2.0000      -0.216977        -5.9043
  84   0.0000      -0.089078        -2.4239
  85   0.0000      -0.069825        -1.9000
  86   0.0000      -0.066137        -1.7997
  87   0.0000      -0.061786        -1.6813
  88   0.0000      -0.054537        -1.4840

MULLIKEN ATOMIC CHARGES
-----------------------
   0 C :    0.008701
   1 C :    0.001556
   2 C :    0.015214
   3 C :   -0.152114
   4 C :   -0.002913
   5 C :    0.001890
   6 P :    0.647754
   7 O :   -0.461244
   8 C :   -0.104972
   9 C :   -0.005748
  10 C :   -0.000213
  11 C :    0.008261
  12 C :   -0.000537
  13 C :    0.004743
  14 C :   -0.114401
  15 C :   -0.022060
  16 C :    0.020514
  17 C :    0.011401
  18 C :   -0.004186
  19 C :    0.001207
  20 C :    0.106186
  21 O :   -0.178896
  22 O :   -0.148217
  23 H :    0.010265
  24 H :    0.012111
  25 H :    0.024565
  26 H :    0.006383
  27 H :    0.006471
  28 H :    0.009021
  29 H :    0.006057
  30 H :    0.009105
  31 H :    0.010298
  32 H :    0.017724
  33 H :    0.020379
  34 H :    0.010982
  35 H :    0.014741
  36 H :    0.017533
  37 H :    0.192442
Sum of atomic charges:   -0.0000000

LOEWDIN ATOMIC CHARGES
----------------------
   0 C :   -0.020755
   1 C :   -0.026205
   2 C :   -0.014106
   3 C :   -0.183644
   4 C :   -0.034585
   5 C :   -0.030333
   6 P :    0.885591
   7 O :   -0.487944
   8 C :   -0.176701
   9 C :   -0.035181
  10 C :   -0.028844
  11 C :   -0.023368
  12 C :   -0.026639
  13 C :   -0.019274
  14 C :   -0.165028
  15 C :   -0.030481
  16 C :   -0.017968
  17 C :   -0.018424
  18 C :    0.003969
  19 C :   -0.054195
  20 C :    0.059061
  21 O :   -0.155276
  22 O :   -0.013234
  23 H :    0.035170
  24 H :    0.036397
  25 H :    0.039270
  26 H :    0.033238
  27 H :    0.034821
  28 H :    0.032278
  29 H :    0.034632
  30 H :    0.034763
  31 H :    0.035571
  32 H :    0.037348
  33 H :    0.037319
  34 H :    0.037462
  35 H :    0.038403
  36 H :    0.042906
  37 H :    0.103988

  Mayer bond orders larger than 0.100000
B(  0-C ,  1-C ) :   1.3772 B(  0-C ,  5-C ) :   1.3787 B(  0-C , 23-H ) :   0.9758
B(  1-C ,  2-C ) :   1.3747 B(  1-C , 24-H ) :   0.9783 B(  2-C ,  3-C ) :   1.3812
B(  2-C , 25-H ) :   0.9710 B(  3-C ,  4-C ) :   1.3521 B(  3-C ,  6-P ) :   0.8813
B(  4-C ,  5-C ) :   1.3871 B(  4-C , 26-H ) :   0.9685 B(  5-C , 27-H ) :   0.9757
B(  6-P ,  7-O ) :   1.8563 B(  6-P ,  8-C ) :   0.8950 B(  6-P , 14-C ) :   0.8628
B(  8-C ,  9-C ) :   1.3648 B(  8-C , 13-C ) :   1.3744 B(  9-C , 10-C ) :   1.3836
B(  9-C , 28-H ) :   0.9670 B( 10-C , 11-C ) :   1.3813 B( 10-C , 29-H ) :   0.9758
B( 11-C , 12-C ) :   1.3772 B( 11-C , 30-H ) :   0.9760 B( 12-C , 13-C ) :   1.3753
B( 12-C , 31-H ) :   0.9778 B( 13-C , 32-H ) :   0.9736 B( 14-C , 15-C ) :   1.3807
B( 14-C , 19-C ) :   1.3814 B( 15-C , 16-C ) :   1.3774 B( 15-C , 33-H ) :   0.9593
B( 16-C , 17-C ) :   1.3669 B( 16-C , 34-H ) :   0.9757 B( 17-C , 18-C ) :   1.3534
B( 17-C , 35-H ) :   0.9770 B( 18-C , 19-C ) :   1.4159 B( 18-C , 36-H ) :   0.9743
B( 19-C , 20-C ) :   0.9070 B( 20-C , 21-O ) :   2.1126 B( 20-C , 22-O ) :   1.2259
B( 22-O , 37-H ) :   0.9334

Dispersion correction           -0.096462855
FINAL SINGLE POINT ENERGY     -1299.461240787657

DIPOLE MOMENT
-------------

Method             : SCF
Type of density    : Electron Density
Multiplicity       :   1
Irrep              :   0
Energy             : -1299.3647779324901421 Eh
Relativity type    :
Basis              : AO
                                X                 Y                 Z
Electronic contribution:      6.165481134       1.594364853      -7.891434964
Nuclear contribution   :     -6.914467284      -1.379551383       9.634443195
                        -----------------------------------------
Total Dipole Moment    :     -0.748986150       0.214813470       1.743008232
                        -----------------------------------------
Magnitude (a.u.)       :      1.909241414
Magnitude (Debye)      :      4.852906007

Rotational constants in cm-1:             0.009512             0.007951             0.005693
Rotational constants in MHz :           285.168150           238.357034           170.674646

                             ****ORCA TERMINATED NORMALLY****
TOTAL RUN TIME: 0 days 0 hours 3 minutes 48 seconds 441 msec
