                         Program Version 6.0.0  -   RELEASE   -
|  1> ! RIJCOSX M062X def2-TZVP D3ZERO NormalSCF
|  2> %pal
|  3> nprocs 6
|  4> end
|  5>
|  6> * xyz 0 1
|  7>   C          -1.25897397875734     -1.04603504610228     -0.12070875649392
|  8>   P          -0.06959626290546      0.14699174979208     -0.93002134543000
|  9>   C          -0.28435532506973      1.60069824466719      0.22482861689963
| 10>   C           1.53261412527309     -0.53193751015508     -0.24784305358946
| 11>   H          -1.08961779958016     -1.14364405025842      0.97320698480184
| 12>   H          -2.29959274909047     -0.70306548618536     -0.29170785495396
| 13>   H          -1.15456505379581     -2.04592776829049     -0.58876879550288
| 14>   H          -1.28549964526639      2.05148895737085      0.06899226161401
| 15>   H           0.47259849998754      2.37561984404034     -0.01239597320644
| 16>   H          -0.18239726835033      1.31651362349096      1.29426149911230
| 17>   H           2.36385717501035      0.15619611735702     -0.50333818412407
| 18>   H           1.50519392161601     -0.66613862748115      0.85489627448290
| 19>   H           1.75033336092870     -1.51076004824565     -0.72140267360994
| 20> **                         ****END OF INPUT****

CARTESIAN COORDINATES (ANGSTROEM)
---------------------------------
  C     -1.258974   -1.046035   -0.120709
  P     -0.069596    0.146992   -0.930021
  C     -0.284355    1.600698    0.224829
  C      1.532614   -0.531938   -0.247843
  H     -1.089618   -1.143644    0.973207
  H     -2.299593   -0.703065   -0.291708
  H     -1.154565   -2.045928   -0.588769
  H     -1.285500    2.051489    0.068992
  H      0.472598    2.375620   -0.012396
  H     -0.182397    1.316514    1.294261
  H      2.363857    0.156196   -0.503338
  H      1.505194   -0.666139    0.854896
  H      1.750333   -1.510760   -0.721403

 Total Charge           Charge          ....    0
 Multiplicity           Mult            ....    1
 Number of Electrons    NEL             ....   42
 Basis Dimension        Dim             ....  184

ORBITAL ENERGIES
----------------

  NO   OCC          E(Eh)            E(eV)
   0   2.0000     -78.018340     -2122.9870
   1   2.0000     -10.533798      -286.6392
   2   2.0000     -10.533778      -286.6387
   3   2.0000     -10.533722      -286.6372
   4   2.0000      -6.833658      -185.9533
   5   2.0000      -4.948220      -134.6479
   6   2.0000      -4.947833      -134.6374
   7   2.0000      -4.947825      -134.6372
   8   2.0000      -0.844536       -22.9810
   9   2.0000      -0.770986       -20.9796
  10   2.0000      -0.770951       -20.9786
  11   2.0000      -0.598124       -16.2758
  12   2.0000      -0.498439       -13.5632
  13   2.0000      -0.484787       -13.1917
  14   2.0000      -0.484760       -13.1910
  15   2.0000      -0.457142       -12.4395
  16   2.0000      -0.457115       -12.4387
  17   2.0000      -0.443515       -12.0686
  18   2.0000      -0.374831       -10.1997
  19   2.0000      -0.374798       -10.1988
  20   2.0000      -0.276384        -7.5208
  21   0.0000       0.063945         1.7400
  22   0.0000       0.073313         1.9950
  23   0.0000       0.073324         1.9953
  24   0.0000       0.111288         3.0283
  25   0.0000       0.128958         3.5091

MULLIKEN ATOMIC CHARGES
-----------------------
   0 C :   -0.518529
   1 P :    0.192829
   2 C :   -0.518957
   3 C :   -0.517834
   4 H :    0.143643
   5 H :    0.155315
   6 H :    0.155139
   7 H :    0.155090
   8 H :    0.155337
   9 H :    0.143732
  10 H :    0.155150
  11 H :    0.143722
  12 H :    0.155364
Sum of atomic charges:    0.0000000

LOEWDIN ATOMIC CHARGES
----------------------
   0 C :   -0.496637
   1 P :    0.449529
   2 C :   -0.496766
   3 C :   -0.496556
   4 H :    0.109374
   5 H :    0.118719
   6 H :    0.118729
   7 H :    0.118709
   8 H :    0.118709
   9 H :    0.109379
  10 H :    0.118696
  11 H :    0.109401
  12 H :    0.118714

  Mayer bond orders larger than 0.100000
B(  0-C ,  1-P ) :   0.9795 B(  0-C ,  4-H ) :   0.9512 B(  0-C ,  5-H ) :   0.9538
B(  0-C ,  6-H ) :   0.9538 B(  1-P ,  2-C ) :   0.9787 B(  1-P ,  3-C ) :   0.9794
B(  2-C ,  7-H ) :   0.9539 B(  2-C ,  8-H ) :   0.9537 B(  2-C ,  9-H ) :   0.9512
B(  3-C , 10-H ) :   0.9538 B(  3-C , 11-H ) :   0.9512 B(  3-C , 12-H ) :   0.9539

Dispersion correction           -0.000179103
FINAL SINGLE POINT ENERGY      -461.061146453271

DIPOLE MOMENT
-------------

Method             : SCF
Type of density    : Electron Density
Multiplicity       :   1
Irrep              :   0
Energy             :  -461.0609673502454484 Eh
Relativity type    :
Basis              : AO
                                X                 Y                 Z
Electronic contribution:     -0.323636579       0.683108702      -4.325355488
Nuclear contribution   :      0.356197172      -0.752504876       4.760993001
                        -----------------------------------------
Total Dipole Moment    :      0.032560592      -0.069396174       0.435637513
                        -----------------------------------------
Magnitude (a.u.)       :      0.442330266
Magnitude (Debye)      :      1.124314184

Rotational constants in cm-1:             0.188525             0.188491             0.121491
Rotational constants in MHz :          5651.840042          5650.830708          3642.214491

                             ****ORCA TERMINATED NORMALLY****
TOTAL RUN TIME: 0 days 0 hours 0 minutes 8 seconds 543 msec
