                         Program Version 6.0.0  -   RELEASE   -
|  1> ! RIJCOSX M062X def2-TZVP D3ZERO NormalSCF
|  2> %pal
|  3> nprocs 6
|  4> end
|  5>
|  6> * xyz 0 1
|  7>   C           7.42256544752160      1.39803270116329      0.15690523956691
|  8>   C           5.97528253489045      0.92891996249311     -0.01828995451636
|  9>   C           5.05394740390507      1.37098267253520      1.12794558265034
| 10>   C           3.57676909688416      0.99981007390842      0.93276648611996
| 11>   C           3.30982984989518     -0.51060748797941      0.87651283785055
| 12>   C           1.82190101316571     -0.89218137273655      0.82139690931034
| 13>   P           1.01740482187750     -0.28439461877318     -0.73609400277434
| 14>   O           1.99001194549206     -0.18423388022166     -1.90137026755903
| 15>   C          -0.38113405248004     -1.44654201840132     -1.08515488463600
| 16>   C          -1.13261245147637     -2.09568213072274      0.08529511186666
| 17>   C          -2.28806393617448     -2.99211376234738     -0.37946707131589
| 18>   C          -3.03408178481734     -3.67249319639550      0.77544113489690
| 19>   C          -4.17460371270665     -4.60693637249144      0.33901019449209
| 20>   C          -5.33679253054419     -3.90146815643914     -0.37031730754500
| 21>   C           0.23055805697775      1.34492609254411     -0.36233988947037
| 22>   C          -0.83536437925280      1.41913383377098      0.73634801178396
| 23>   C          -1.37667916502989      2.84137334712303      0.97128414693108
| 24>   C          -2.01117061683641      3.50842483181255     -0.26010660071887
| 25>   C          -3.16141570312573      2.71532246241024     -0.89554316080243
| 26>   C          -3.83219062440541      3.45218219102490     -2.05871773816816
| 27>   H           7.86446338921240      1.00302001395509      1.09642571362182
| 28>   H           8.06750365813394      1.06378047619695     -0.68120795262385
| 29>   H           7.48556437793381      2.50598822299647      0.20582449317027
| 30>   H           5.95550154058444     -0.17888133981523     -0.10876276694141
| 31>   H           5.56482720636513      1.31115791267846     -0.97941015602857
| 32>   H           5.13392501656515      2.47472709874865      1.24735912685742
| 33>   H           5.42434152635191      0.93824104302744      2.08633614074139
| 34>   H           2.97256434289422      1.45087747616611      1.75214619711033
| 35>   H           3.21782692858400      1.45124418855576     -0.01789536692627
| 36>   H           3.79864525474576     -0.93354412491711     -0.02527278999967
| 37>   H           3.77261863191295     -1.00480378806934      1.75988972535332
| 38>   H           1.71609260542565     -1.99736624919450      0.82530066585136
| 39>   H           1.26194740893228     -0.51589390295149      1.70546023841891
| 40>   H           0.08699022436039     -2.22315842851643     -1.72860910904625
| 41>   H          -1.08132990745476     -0.88958928352342     -1.74647388030277
| 42>   H          -0.42627020492617     -2.69926884339350      0.69579389460489
| 43>   H          -1.53135711337195     -1.31832668325177      0.77145372534964
| 44>   H          -1.89356369269475     -3.76818779432401     -1.07434400855476
| 45>   H          -2.99569146829871     -2.38112101669196     -0.98217294867228
| 46>   H          -3.44094475013459     -2.89084557067068      1.45786708736113
| 47>   H          -2.30275608694819     -4.25079012596375      1.38292527132715
| 48>   H          -3.76076012753190     -5.40049312318374     -0.32339435748649
| 49>   H          -4.56279205420818     -5.13730198820793      1.23564571790872
| 50>   H          -5.01984333876358     -3.43142973457475     -1.32408277896070
| 51>   H          -6.15385590860242     -4.61138246085197     -0.61177041722950
| 52>   H          -5.76801642315558     -3.10009341408860      0.26681751920844
| 53>   H           1.06980420517100      2.03943218282036     -0.14537444570508
| 54>   H          -0.17641312830079      1.66159181979597     -1.34698081001902
| 55>   H          -0.41726568046622      1.03560828348641      1.69207908231575
| 56>   H          -1.68138803788371      0.74462746910901      0.48630596117602
| 57>   H          -2.12843299191198      2.79965244487953      1.79068471909971
| 58>   H          -0.55116084470305      3.48582902557640      1.34655356835693
| 59>   H          -1.23091678122738      3.69929215658240     -1.03110038582778
| 60>   H          -2.38327834218887      4.51472048903027      0.03408492680158
| 61>   H          -3.91741226488793      2.47665644703739     -0.11324779063796
| 62>   H          -2.78388805500695      1.73236888819430     -1.25545582092163
| 63>   H          -3.10364454907058      3.67315303215171     -2.86700601374431
| 64>   H          -4.65481252800773      2.85648030552921     -2.50395138077835
| 65>   H          -4.26098125118720      4.42157472339475     -1.72794537219047
| 66> **                         ****END OF INPUT****

CARTESIAN COORDINATES (ANGSTROEM)
---------------------------------
  C      7.422565    1.398033    0.156905
  C      5.975283    0.928920   -0.018290
  C      5.053947    1.370983    1.127946
  C      3.576769    0.999810    0.932766
  C      3.309830   -0.510607    0.876513
  C      1.821901   -0.892181    0.821397
  P      1.017405   -0.284395   -0.736094
  O      1.990012   -0.184234   -1.901370
  C     -0.381134   -1.446542   -1.085155
  C     -1.132612   -2.095682    0.085295
  C     -2.288064   -2.992114   -0.379467
  C     -3.034082   -3.672493    0.775441
  C     -4.174604   -4.606936    0.339010
  C     -5.336793   -3.901468   -0.370317
  C      0.230558    1.344926   -0.362340
  C     -0.835364    1.419134    0.736348
  C     -1.376679    2.841373    0.971284
  C     -2.011171    3.508425   -0.260107
  C     -3.161416    2.715322   -0.895543
  C     -3.832191    3.452182   -2.058718
  H      7.864463    1.003020    1.096426
  H      8.067504    1.063780   -0.681208
  H      7.485564    2.505988    0.205824
  H      5.955502   -0.178881   -0.108763
  H      5.564827    1.311158   -0.979410
  H      5.133925    2.474727    1.247359
  H      5.424342    0.938241    2.086336
  H      2.972564    1.450877    1.752146
  H      3.217827    1.451244   -0.017895
  H      3.798645   -0.933544   -0.025273
  H      3.772619   -1.004804    1.759890
  H      1.716093   -1.997366    0.825301
  H      1.261947   -0.515894    1.705460
  H      0.086990   -2.223158   -1.728609
  H     -1.081330   -0.889589   -1.746474
  H     -0.426270   -2.699269    0.695794
  H     -1.531357   -1.318327    0.771454
  H     -1.893564   -3.768188   -1.074344
  H     -2.995691   -2.381121   -0.982173
  H     -3.440945   -2.890846    1.457867
  H     -2.302756   -4.250790    1.382925
  H     -3.760760   -5.400493   -0.323394
  H     -4.562792   -5.137302    1.235646
  H     -5.019843   -3.431430   -1.324083
  H     -6.153856   -4.611382   -0.611770
  H     -5.768016   -3.100093    0.266818
  H      1.069804    2.039432   -0.145374
  H     -0.176413    1.661592   -1.346981
  H     -0.417266    1.035608    1.692079
  H     -1.681388    0.744627    0.486306
  H     -2.128433    2.799652    1.790685
  H     -0.551161    3.485829    1.346554
  H     -1.230917    3.699292   -1.031100
  H     -2.383278    4.514720    0.034085
  H     -3.917412    2.476656   -0.113248
  H     -2.783888    1.732369   -1.255456
  H     -3.103645    3.673153   -2.867006
  H     -4.654813    2.856480   -2.503951
  H     -4.260981    4.421575   -1.727945

 Total Charge           Charge          ....    0
 Multiplicity           Mult            ....    1
 Number of Electrons    NEL             ....  170
 Basis Dimension        Dim             ....  860

ORBITAL ENERGIES
----------------

  NO   OCC          E(Eh)            E(eV)
   0   2.0000     -78.081423     -2124.7035
   1   2.0000     -19.553547      -532.0791
   2   2.0000     -10.551042      -287.1085
   3   2.0000     -10.550889      -287.1043
   4   2.0000     -10.547023      -286.9991
   5   2.0000     -10.546421      -286.9827
   6   2.0000     -10.544993      -286.9439
   7   2.0000     -10.542994      -286.8894
   8   2.0000     -10.541861      -286.8586
   9   2.0000     -10.539915      -286.8057
  10   2.0000     -10.539659      -286.7987
  11   2.0000     -10.539185      -286.7858
  12   2.0000     -10.538154      -286.7577
  13   2.0000     -10.536864      -286.7227
  14   2.0000     -10.531598      -286.5793
  15   2.0000     -10.531493      -286.5765
  16   2.0000     -10.530016      -286.5363
  17   2.0000     -10.528174      -286.4862
  18   2.0000     -10.524745      -286.3929
  19   2.0000     -10.520936      -286.2892
  20   2.0000      -6.888014      -187.4324
  21   2.0000      -5.004959      -136.1918
  22   2.0000      -5.004908      -136.1905
  23   2.0000      -5.003341      -136.1478
  24   2.0000      -1.048655       -28.5353
  25   2.0000      -0.919055       -25.0088
  26   2.0000      -0.913674       -24.8623
  27   2.0000      -0.903813       -24.5940
  28   2.0000      -0.879294       -23.9268
  29   2.0000      -0.867581       -23.6081
  30   2.0000      -0.860720       -23.4214
  31   2.0000      -0.820575       -22.3290
  32   2.0000      -0.803269       -21.8581
  33   2.0000      -0.799564       -21.7572
  34   2.0000      -0.753065       -20.4919
  35   2.0000      -0.737308       -20.0632
  36   2.0000      -0.724243       -19.7077
  37   2.0000      -0.694164       -18.8892
  38   2.0000      -0.682823       -18.5806
  39   2.0000      -0.678917       -18.4743
  40   2.0000      -0.650512       -17.7013
  41   2.0000      -0.642180       -17.4746
  42   2.0000      -0.636538       -17.3211
  43   2.0000      -0.595520       -16.2049
  44   2.0000      -0.559798       -15.2329
  45   2.0000      -0.550994       -14.9933
  46   2.0000      -0.542398       -14.7594
  47   2.0000      -0.534869       -14.5545
  48   2.0000      -0.524141       -14.2626
  49   2.0000      -0.521350       -14.1866
  50   2.0000      -0.511371       -13.9151
  51   2.0000      -0.508938       -13.8489
  52   2.0000      -0.500955       -13.6317
  53   2.0000      -0.496719       -13.5164
  54   2.0000      -0.484846       -13.1933
  55   2.0000      -0.482046       -13.1171
  56   2.0000      -0.481400       -13.0996
  57   2.0000      -0.468565       -12.7503
  58   2.0000      -0.465950       -12.6791
  59   2.0000      -0.462187       -12.5767
  60   2.0000      -0.451641       -12.2898
  61   2.0000      -0.450844       -12.2681
  62   2.0000      -0.444987       -12.1087
  63   2.0000      -0.432410       -11.7665
  64   2.0000      -0.428606       -11.6630
  65   2.0000      -0.424704       -11.5568
  66   2.0000      -0.420649       -11.4464
  67   2.0000      -0.415571       -11.3083
  68   2.0000      -0.412823       -11.2335
  69   2.0000      -0.408289       -11.1101
  70   2.0000      -0.404370       -11.0035
  71   2.0000      -0.402278       -10.9465
  72   2.0000      -0.394694       -10.7402
  73   2.0000      -0.387374       -10.5410
  74   2.0000      -0.386191       -10.5088
  75   2.0000      -0.383997       -10.4491
  76   2.0000      -0.382488       -10.4080
  77   2.0000      -0.380689       -10.3591
  78   2.0000      -0.377807       -10.2807
  79   2.0000      -0.374599       -10.1934
  80   2.0000      -0.371555       -10.1105
  81   2.0000      -0.367993       -10.0136
  82   2.0000      -0.363655        -9.8955
  83   2.0000      -0.316745        -8.6191
  84   2.0000      -0.314598        -8.5607
  85   0.0000       0.039177         1.0660
  86   0.0000       0.056986         1.5507
  87   0.0000       0.060204         1.6382
  88   0.0000       0.067557         1.8383
  89   0.0000       0.071302         1.9402

MULLIKEN ATOMIC CHARGES
-----------------------
   0 C :   -0.430518
   1 C :   -0.255041
   2 C :   -0.289319
   3 C :   -0.305203
   4 C :   -0.263711
   5 C :   -0.446386
   6 P :    0.717644
   7 O :   -0.598587
   8 C :   -0.447066
   9 C :   -0.325945
  10 C :   -0.280636
  11 C :   -0.269957
  12 C :   -0.245491
  13 C :   -0.445812
  14 C :   -0.460269
  15 C :   -0.334244
  16 C :   -0.269488
  17 C :   -0.310532
  18 C :   -0.257145
  19 C :   -0.427035
  20 H :    0.132819
  21 H :    0.143167
  22 H :    0.135306
  23 H :    0.134333
  24 H :    0.147800
  25 H :    0.137954
  26 H :    0.141659
  27 H :    0.143132
  28 H :    0.165839
  29 H :    0.180587
  30 H :    0.147018
  31 H :    0.168150
  32 H :    0.177969
  33 H :    0.194583
  34 H :    0.177981
  35 H :    0.154013
  36 H :    0.159469
  37 H :    0.148461
  38 H :    0.145476
  39 H :    0.145894
  40 H :    0.139294
  41 H :    0.137759
  42 H :    0.138307
  43 H :    0.142535
  44 H :    0.145525
  45 H :    0.137312
  46 H :    0.197672
  47 H :    0.196327
  48 H :    0.164061
  49 H :    0.161520
  50 H :    0.152791
  51 H :    0.152326
  52 H :    0.161609
  53 H :    0.148165
  54 H :    0.138692
  55 H :    0.126174
  56 H :    0.140918
  57 H :    0.143237
  58 H :    0.138903
Sum of atomic charges:   -0.0000000

LOEWDIN ATOMIC CHARGES
----------------------
   0 C :   -0.326930
   1 C :   -0.301883
   2 C :   -0.279389
   3 C :   -0.284581
   4 C :   -0.290932
   5 C :   -0.371631
   6 P :    0.578055
   7 O :   -0.332069
   8 C :   -0.371292
   9 C :   -0.298904
  10 C :   -0.275627
  11 C :   -0.280346
  12 C :   -0.304593
  13 C :   -0.326775
  14 C :   -0.375148
  15 C :   -0.301884
  16 C :   -0.274014
  17 C :   -0.281813
  18 C :   -0.305757
  19 C :   -0.323758
  20 H :    0.120573
  21 H :    0.121910
  22 H :    0.120759
  23 H :    0.137212
  24 H :    0.142601
  25 H :    0.139419
  26 H :    0.137633
  27 H :    0.136103
  28 H :    0.144860
  29 H :    0.150466
  30 H :    0.139873
  31 H :    0.142500
  32 H :    0.138154
  33 H :    0.152564
  34 H :    0.145901
  35 H :    0.139333
  36 H :    0.137848
  37 H :    0.142474
  38 H :    0.139770
  39 H :    0.139177
  40 H :    0.140129
  41 H :    0.137878
  42 H :    0.138071
  43 H :    0.120184
  44 H :    0.123066
  45 H :    0.122372
  46 H :    0.147308
  47 H :    0.149915
  48 H :    0.138495
  49 H :    0.138206
  50 H :    0.141398
  51 H :    0.141886
  52 H :    0.139752
  53 H :    0.141611
  54 H :    0.137931
  55 H :    0.133779
  56 H :    0.123600
  57 H :    0.122146
  58 H :    0.122412

  Mayer bond orders larger than 0.100000
B(  0-C ,  1-C ) :   0.9458 B(  0-C , 20-H ) :   0.9724 B(  0-C , 21-H ) :   0.9821
B(  0-C , 22-H ) :   0.9763 B(  1-C ,  2-C ) :   0.9172 B(  1-C , 23-H ) :   0.9748
B(  1-C , 24-H ) :   0.9684 B(  2-C ,  3-C ) :   0.9624 B(  2-C , 25-H ) :   0.9777
B(  2-C , 26-H ) :   0.9817 B(  3-C ,  4-C ) :   0.8912 B(  3-C , 27-H ) :   0.9692
B(  3-C , 28-H ) :   0.9642 B(  4-C ,  5-C ) :   0.9477 B(  4-C , 29-H ) :   0.9648
B(  4-C , 30-H ) :   0.9770 B(  5-C ,  6-P ) :   0.8880 B(  5-C , 31-H ) :   0.9566
B(  5-C , 32-H ) :   0.9331 B(  6-P ,  7-O ) :   1.9567 B(  6-P ,  8-C ) :   0.9230
B(  6-P , 14-C ) :   0.9066 B(  8-C ,  9-C ) :   0.8499 B(  8-C , 33-H ) :   0.9496
B(  8-C , 34-H ) :   0.9641 B(  9-C , 10-C ) :   0.9249 B(  9-C , 35-H ) :   0.9747
B(  9-C , 36-H ) :   0.9819 B( 10-C , 11-C ) :   0.8974 B( 10-C , 37-H ) :   0.9741
B( 10-C , 38-H ) :   0.9823 B( 11-C , 12-C ) :   0.9411 B( 11-C , 39-H ) :   0.9879
B( 11-C , 40-H ) :   0.9762 B( 12-C , 13-C ) :   0.9268 B( 12-C , 41-H ) :   0.9780
B( 12-C , 42-H ) :   0.9839 B( 13-C , 43-H ) :   0.9747 B( 13-C , 44-H ) :   0.9763
B( 13-C , 45-H ) :   0.9694 B( 14-C , 15-C ) :   0.8319 B( 14-C , 46-H ) :   0.9493
B( 14-C , 47-H ) :   0.9504 B( 15-C , 16-C ) :   0.9238 B( 15-C , 48-H ) :   0.9707
B( 15-C , 49-H ) :   0.9797 B( 16-C , 17-C ) :   0.9239 B( 16-C , 50-H ) :   0.9871
B( 16-C , 51-H ) :   0.9873 B( 17-C , 18-C ) :   0.9080 B( 17-C , 52-H ) :   0.9749
B( 17-C , 53-H ) :   0.9771 B( 18-C , 19-C ) :   0.9601 B( 18-C , 54-H ) :   0.9698
B( 18-C , 55-H ) :   0.9658 B( 19-C , 56-H ) :   0.9716 B( 19-C , 57-H ) :   0.9803
B( 19-C , 58-H ) :   0.9767

Dispersion correction           -0.003875726
FINAL SINGLE POINT ENERGY     -1125.932091791038

DIPOLE MOMENT
-------------

Method             : SCF
Type of density    : Electron Density
Multiplicity       :   1
Irrep              :   0
Energy             : -1125.9282160646714601 Eh
Relativity type    :
Basis              : AO
                                X                 Y                 Z
Electronic contribution:      9.190604510      -2.473587761      -4.676076075
Nuclear contribution   :    -10.434665613       2.333969824       5.956791738
                        -----------------------------------------
Total Dipole Moment    :     -1.244061103      -0.139617937       1.280715662
                        -----------------------------------------
Magnitude (a.u.)       :      1.790925404
Magnitude (Debye)      :      4.552170611

Rotational constants in cm-1:             0.009790             0.004161             0.003199
Rotational constants in MHz :           293.510218           124.747261            95.895082

                             ****ORCA TERMINATED NORMALLY****
TOTAL RUN TIME: 0 days 0 hours 2 minutes 49 seconds 43 msec
