                         Program Version 6.0.0  -   RELEASE   -
|  1> ! RI BP86 def2-SVP D3BJ TIGHTSCF Opt
|  2> %pal
|  3> nprocs 6
|  4> end
|  5>
|  6> * xyz 0 1
|  7> C      0.137986    2.698474   -0.899314
|  8> C     -0.550883    1.504274   -0.235986
|  9> C     -0.708808    1.771934    1.257793
| 10> P      0.235601   -0.072306   -0.676081
| 11> O      0.946845    0.008041   -2.002126
| 12> C     -1.080979   -1.323932   -0.749007
| 13> C     -1.910985   -1.464712    0.519810
| 14> C     -2.002777   -1.122849   -1.953038
| 15> C      1.384110   -0.556247    0.644062
| 16> C      2.607800    0.360061    0.702997
| 17> C      1.871561   -1.998768    0.494505
| 18> H      0.145316    2.580628   -1.987609
| 19> H     -0.381359    3.634120   -0.667725
| 20> H      1.177029    2.791171   -0.571614
| 21> H     -1.560606    1.463772   -0.659558
| 22> H      0.257095    1.946815    1.739500
| 23> H     -1.328677    2.658588    1.429069
| 24> H     -1.182219    0.931090    1.768628
| 25> H     -0.569347   -2.279240   -0.913550
| 26> H     -1.270897   -1.598466    1.395985
| 27> H     -2.533748   -0.581010    0.686538
| 28> H     -2.576395   -2.332155    0.454902
| 29> H     -2.717394   -1.947580   -2.042626
| 30> H     -1.421821   -1.077154   -2.879437
| 31> H     -2.568029   -0.189878   -1.872039
| 32> H      0.857691   -0.484476    1.601380
| 33> H      2.317037    1.397709    0.878963
| 34> H      3.284764    0.064203    1.511161
| 35> H      3.164094    0.330829   -0.239664
| 36> H      1.042894   -2.704225    0.599659
| 37> H      2.322517   -2.158985   -0.490154
| 38> H      2.612584   -2.249726    1.260630
| 39> **                         ****END OF INPUT****
 Total Charge           Charge          ....    0
 Multiplicity           Mult            ....    1
 Number of Electrons    NEL             ....   98
Dispersion correction           -0.060190295
FINAL SINGLE POINT ENERGY      -771.865406336415
Dispersion correction             ... done (  0.1 sec)
Dispersion correction           -0.059792971
FINAL SINGLE POINT ENERGY      -771.873191101927
Dispersion correction             ... done (  0.1 sec)
Dispersion correction           -0.059543095
FINAL SINGLE POINT ENERGY      -771.874868444045
Dispersion correction             ... done (  0.1 sec)
FINAL SINGLE POINT ENERGY      -771.875408425321
FINAL SINGLE POINT ENERGY      -771.875429505157
FINAL SINGLE POINT ENERGY      -771.875604192637
FINAL SINGLE POINT ENERGY      -771.875622179540
Dispersion correction             ... done (  0.1 sec)
Dispersion correction           -0.059449176
FINAL SINGLE POINT ENERGY      -771.875633029659
Dispersion correction             ... done (  0.1 sec)
Dispersion correction           -0.059447642
FINAL SINGLE POINT ENERGY      -771.875635110035
Dispersion correction             ... done (  0.1 sec)
                    ***********************HURRAY********************

CARTESIAN COORDINATES (ANGSTROEM)
---------------------------------
  C      0.163114    2.693012   -0.930854
  C     -0.564547    1.542773   -0.217755
  C     -0.726130    1.786763    1.289758
  P      0.247104   -0.084631   -0.684077
  O      0.969892   -0.009692   -2.025205
  C     -1.117251   -1.355200   -0.731366
  C     -1.932918   -1.494238    0.559504
  C     -1.985801   -1.097513   -1.971963
  C      1.403865   -0.575882    0.695973
  C      2.598683    0.392604    0.683879
  C      1.864357   -2.027437    0.486348
  H      0.357083    2.434885   -1.989465
  H     -0.440708    3.623093   -0.884082
  H      1.143818    2.903651   -0.457305
  H     -1.577874    1.449788   -0.670574
  H      0.257205    1.917426    1.785798
  H     -1.306339    2.716822    1.466677
  H     -1.257739    0.962907    1.804648
  H     -0.552088   -2.297117   -0.907373
  H     -1.295045   -1.673857    1.448883
  H     -2.541940   -0.587328    0.753674
  H     -2.639316   -2.347396    0.481462
  H     -2.671826   -1.950605   -2.153797
  H     -1.347528   -0.954990   -2.865605
  H     -2.612792   -0.189146   -1.848111
  H      0.856328   -0.490858    1.659506
  H      2.304338    1.429380    0.941737
  H      3.368708    0.069184    1.414641
  H      3.055078    0.414114   -0.326223
  H      1.041681   -2.757404    0.622266
  H      2.275266   -2.155515   -0.536372
  H      2.663322   -2.287596    1.211425

 Multiplicity           Mult            ....    1
 Number of Electrons    NEL             ....   98
 Basis Dimension        Dim             ....  263

ORBITAL ENERGIES
----------------

  NO   OCC          E(Eh)            E(eV)
   0   2.0000     -76.396295     -2078.8489
   1   2.0000     -18.706371      -509.0262
   2   2.0000      -9.928107      -270.1575
   3   2.0000      -9.928055      -270.1561
   4   2.0000      -9.927995      -270.1545
   5   2.0000      -9.923720      -270.0382
   6   2.0000      -9.921153      -269.9683
   7   2.0000      -9.915842      -269.8238
   8   2.0000      -9.912860      -269.7426
   9   2.0000      -9.912488      -269.7325
  10   2.0000      -9.907027      -269.5839
  11   2.0000      -6.356043      -172.9567
  12   2.0000      -4.577168      -124.5511
  13   2.0000      -4.577077      -124.5486
  14   2.0000      -4.577029      -124.5473
  15   2.0000      -0.838629       -22.8203
  16   2.0000      -0.730361       -19.8741
  17   2.0000      -0.711808       -19.3693
  18   2.0000      -0.709312       -19.3014
  19   2.0000      -0.621357       -16.9080
  20   2.0000      -0.616278       -16.7698
  21   2.0000      -0.614710       -16.7271
  22   2.0000      -0.575430       -15.6582
  23   2.0000      -0.527370       -14.3505
  24   2.0000      -0.523305       -14.2399
  25   2.0000      -0.456721       -12.4280
  26   2.0000      -0.430482       -11.7140
  27   2.0000      -0.423778       -11.5316
  28   2.0000      -0.410939       -11.1822
  29   2.0000      -0.392836       -10.6896
  30   2.0000      -0.390527       -10.6268
  31   2.0000      -0.374843       -10.2000
  32   2.0000      -0.370748       -10.0886
  33   2.0000      -0.360769        -9.8170
  34   2.0000      -0.356579        -9.7030
  35   2.0000      -0.348369        -9.4796
  36   2.0000      -0.346068        -9.4170
  37   2.0000      -0.339704        -9.2438
  38   2.0000      -0.317330        -8.6350
  39   2.0000      -0.317164        -8.6305
  40   2.0000      -0.314469        -8.5571
  41   2.0000      -0.308273        -8.3885
  42   2.0000      -0.307087        -8.3563
  43   2.0000      -0.302558        -8.2330
  44   2.0000      -0.281426        -7.6580
  45   2.0000      -0.279130        -7.5955
  46   2.0000      -0.275318        -7.4918
  47   2.0000      -0.204680        -5.5696
  48   2.0000      -0.203322        -5.5327
  49   0.0000       0.015894         0.4325
  50   0.0000       0.028713         0.7813
  51   0.0000       0.034267         0.9325
  52   0.0000       0.040928         1.1137
  53   0.0000       0.056688         1.5426

MULLIKEN ATOMIC CHARGES
-----------------------
   0 C :   -0.003453
   1 C :   -0.266105
   2 C :   -0.006006
   3 P :    0.495915
   4 O :   -0.474013
   5 C :   -0.252916
   6 C :   -0.016066
   7 C :   -0.012506
   8 C :   -0.243649
   9 C :   -0.010942
  10 C :   -0.020725
  11 H :    0.057534
  12 H :    0.027313
  13 H :    0.025794
  14 H :    0.046047
  15 H :    0.031849
  16 H :    0.034975
  17 H :    0.028214
  18 H :    0.054777
  19 H :    0.036381
  20 H :    0.039440
  21 H :    0.036163
  22 H :    0.031643
  23 H :    0.058426
  24 H :    0.027324
  25 H :    0.037253
  26 H :    0.030599
  27 H :    0.030687
  28 H :    0.054708
  29 H :    0.034373
  30 H :    0.054850
  31 H :    0.032115
Sum of atomic charges:   -0.0000000

LOEWDIN ATOMIC CHARGES
----------------------
   0 C :   -0.072099
   1 C :   -0.188350
   2 C :   -0.075217
   3 P :    0.883217
   4 O :   -0.506746
   5 C :   -0.186276
   6 C :   -0.076271
   7 C :   -0.073792
   8 C :   -0.185344
   9 C :   -0.073328
  10 C :   -0.074307
  11 H :    0.036573
  12 H :    0.027082
  13 H :    0.026448
  14 H :    0.031413
  15 H :    0.027763
  16 H :    0.033393
  17 H :    0.025260
  18 H :    0.035410
  19 H :    0.026899
  20 H :    0.028031
  21 H :    0.034009
  22 H :    0.030289
  23 H :    0.037352
  24 H :    0.023301
  25 H :    0.023698
  26 H :    0.023563
  27 H :    0.029516
  28 H :    0.036448
  29 H :    0.025512
  30 H :    0.035346
  31 H :    0.031207

  Mayer bond orders larger than 0.100000
B(  0-C ,  1-C ) :   1.0607 B(  0-C , 11-H ) :   0.9473 B(  0-C , 12-H ) :   0.9578
B(  0-C , 13-H ) :   0.9641 B(  1-C ,  2-C ) :   1.0529 B(  1-C ,  3-P ) :   0.8659
B(  1-C , 14-H ) :   0.9019 B(  2-C , 15-H ) :   0.9536 B(  2-C , 16-H ) :   0.9523
B(  2-C , 17-H ) :   0.9539 B(  3-P ,  4-O ) :   1.8313 B(  3-P ,  5-C ) :   0.8979
B(  3-P ,  8-C ) :   0.8923 B(  5-C ,  6-C ) :   1.0385 B(  5-C ,  7-C ) :   1.0633
B(  5-C , 18-H ) :   0.8969 B(  6-C , 19-H ) :   0.9589 B(  6-C , 20-H ) :   0.9566
B(  6-C , 21-H ) :   0.9514 B(  7-C , 22-H ) :   0.9569 B(  7-C , 23-H ) :   0.9484
B(  7-C , 24-H ) :   0.9604 B(  8-C ,  9-C ) :   1.0601 B(  8-C , 10-C ) :   1.0592
B(  8-C , 25-H ) :   0.8910 B(  9-C , 26-H ) :   0.9540 B(  9-C , 27-H ) :   0.9553
B(  9-C , 28-H ) :   0.9530 B( 10-C , 29-H ) :   0.9561 B( 10-C , 30-H ) :   0.9576
B( 10-C , 31-H ) :   0.9562

Dispersion correction           -0.059443815
FINAL SINGLE POINT ENERGY      -771.875635613235

DIPOLE MOMENT
-------------

Method             : SCF
Type of density    : Electron Density
Multiplicity       :   1
Irrep              :   0
Energy             :  -771.8161917980969520 Eh
Relativity type    :
Basis              : AO
                                X                 Y                 Z
Electronic contribution:      2.379622108      -0.874103886      -6.034671279
Nuclear contribution   :     -3.065053100       0.735892059       7.270404046
                        -----------------------------------------
Total Dipole Moment    :     -0.685430992      -0.138211827       1.235732767
                        -----------------------------------------
Magnitude (a.u.)       :      1.419842817
Magnitude (Debye)      :      3.608953633

Rotational constants in cm-1:             0.031996             0.029136             0.022957
Rotational constants in MHz :           959.205499           873.483736           688.243339

                             ****ORCA TERMINATED NORMALLY****
TOTAL RUN TIME: 0 days 0 hours 1 minutes 42 seconds 835 msec
