                         Program Version 6.0.0  -   RELEASE   -
|  1> ! RIJONX B3LYP def2-SVP D3BJ TIGHTSCF Opt
|  2> %pal
|  3> nprocs 6
|  4> end
|  5>
|  6> * xyz 0 1
|  7> C      2.442481    3.180893   -1.635095
|  8> O      1.557055    2.154285   -1.213575
|  9> C      0.806567    2.371780   -0.081978
| 10> C      0.854881    3.562342    0.658695
| 11> C      0.070391    3.724002    1.801085
| 12> C     -0.768982    2.699114    2.216160
| 13> C     -0.827244    1.509521    1.488309
| 14> C     -0.049308    1.318509    0.329523
| 15> P     -0.112127   -0.249858   -0.638304
| 16> C     -1.605901   -1.133178   -0.034227
| 17> C     -1.507365   -2.370806    0.629951
| 18> C     -2.641474   -3.051564    1.078229
| 19> C     -3.903473   -2.517868    0.857199
| 20> C     -4.036446   -1.307795    0.177285
| 21> C     -2.905041   -0.613885   -0.277682
| 22> O     -2.977195    0.569899   -0.972689
| 23> C     -4.253745    1.161120   -1.161879
| 24> C      1.315596   -1.170475    0.045468
| 25> C      1.681710   -1.090541    1.401727
| 26> C      2.766668   -1.815144    1.908047
| 27> C      3.507445   -2.643298    1.070777
| 28> C      3.169505   -2.740528   -0.275592
| 29> C      2.098802   -1.996200   -0.785597
| 30> O      1.791253   -2.157461   -2.116039
| 31> C      2.629403   -1.322876   -2.916718
| 32> H      2.958692    2.828000   -2.533183
| 33> H      1.894468    4.089863   -1.903695
| 34> H      3.203365    3.384493   -0.874550
| 35> H      1.495370    4.388785    0.370563
| 36> H      0.116426    4.651827    2.365132
| 37> H     -1.381370    2.819828    3.105784
| 38> H     -1.489850    0.728733    1.851602
| 39> H     -0.543495   -2.841583    0.803609
| 40> H     -2.532415   -4.004167    1.590257
| 41> H     -4.787048   -3.049540    1.200297
| 42> H     -5.041133   -0.935863    0.008104
| 43> H     -4.108264    2.107356   -1.691937
| 44> H     -4.893248    0.527316   -1.784669
| 45> H     -4.731430    1.388521   -0.203204
| 46> H      1.118567   -0.470327    2.093962
| 47> H      3.023851   -1.735195    2.961235
| 48> H      4.341790   -3.215709    1.466452
| 49> H      3.733231   -3.398489   -0.930631
| 50> H      3.657522   -1.700234   -2.926220
| 51> H      2.249205   -1.353042   -3.942186
| 52> H      2.612312   -0.280562   -2.579799
| 53> **                         ****END OF INPUT****
 Total Charge           Charge          ....    0
 Multiplicity           Mult            ....    1
 Number of Electrons    NEL             ....  186
Dispersion correction           -0.110152273
FINAL SINGLE POINT ENERGY     -1378.436467230166
Dispersion correction             ... done (  0.1 sec)
Dispersion correction           -0.112071700
FINAL SINGLE POINT ENERGY     -1378.444426187233
Dispersion correction             ... done (  0.1 sec)
Dispersion correction           -0.112675431
FINAL SINGLE POINT ENERGY     -1378.446901390827
Dispersion correction             ... done (  0.1 sec)
FINAL SINGLE POINT ENERGY     -1378.446696470480
FINAL SINGLE POINT ENERGY     -1378.447644050602
FINAL SINGLE POINT ENERGY     -1378.447663483660
FINAL SINGLE POINT ENERGY     -1378.447805382813
FINAL SINGLE POINT ENERGY     -1378.447823154669
FINAL SINGLE POINT ENERGY     -1378.447829174169
FINAL SINGLE POINT ENERGY     -1378.447834040946
FINAL SINGLE POINT ENERGY     -1378.447835476592
FINAL SINGLE POINT ENERGY     -1378.447837349613
FINAL SINGLE POINT ENERGY     -1378.447838114983
FINAL SINGLE POINT ENERGY     -1378.447830462877
Dispersion correction             ... done (  0.1 sec)
Dispersion correction           -0.112866759
FINAL SINGLE POINT ENERGY     -1378.447839117727
Dispersion correction             ... done (  0.1 sec)
Dispersion correction           -0.112852791
FINAL SINGLE POINT ENERGY     -1378.447839962932
Dispersion correction             ... done (  0.1 sec)
                    ***********************HURRAY********************

CARTESIAN COORDINATES (ANGSTROEM)
---------------------------------
  C      2.895542    2.737925   -1.153327
  O      1.772892    1.929115   -0.895204
  C      0.882528    2.295049    0.065826
  C      0.959066    3.494250    0.783936
  C     -0.000609    3.776265    1.763997
  C     -1.022357    2.867127    2.032780
  C     -1.086653    1.666345    1.314702
  C     -0.147569    1.360796    0.326103
  P     -0.173891   -0.151785   -0.738785
  C     -1.552652   -1.122750    0.016084
  C     -1.378865   -2.311601    0.732791
  C     -2.475783   -3.058035    1.180579
  C     -3.768633   -2.612276    0.912258
  C     -3.975278   -1.428029    0.194497
  C     -2.873342   -0.692598   -0.258660
  O     -2.970964    0.466842   -0.959123
  C     -4.238497    1.005690   -1.248793
  C      1.295453   -1.032914   -0.025509
  C      1.735185   -0.863881    1.296789
  C      2.849288   -1.552793    1.781030
  C      3.543437   -2.431498    0.942475
  C      3.123420   -2.611454   -0.376325
  C      2.006616   -1.916813   -0.857726
  O      1.594536   -2.134330   -2.147879
  C      2.108616   -1.216435   -3.101797
  H      3.480438    2.222004   -1.926672
  H      2.606050    3.736443   -1.528193
  H      3.521538    2.863162   -0.251676
  H      1.756124    4.211582    0.587790
  H      0.063181    4.715297    2.319864
  H     -1.765953    3.082940    2.803660
  H     -1.875040    0.945790    1.538774
  H     -0.367595   -2.661217    0.946105
  H     -2.314100   -3.983046    1.738822
  H     -4.632908   -3.184000    1.260117
  H     -4.991714   -1.090779   -0.008906
  H     -4.062331    1.935583   -1.805570
  H     -4.842531    0.320900   -1.871152
  H     -4.801739    1.238894   -0.326997
  H      1.189988   -0.182826    1.954177
  H      3.172685   -1.408216    2.814971
  H      4.412474   -2.979134    1.316555
  H      3.642192   -3.295270   -1.052045
  H      3.210753   -1.286170   -3.166348
  H      1.672378   -1.484105   -4.074335
  H      1.824625   -0.180046   -2.849658

 Multiplicity           Mult            ....    1
 Number of Electrons    NEL             ....  186
 Basis Dimension        Dim             ....  459

ORBITAL ENERGIES
----------------

  NO   OCC          E(Eh)            E(eV)
   0   2.0000     -77.043100     -2096.4493
   1   2.0000     -19.162905      -521.4492
   2   2.0000     -19.160907      -521.3948
   3   2.0000     -19.134918      -520.6876
   4   2.0000     -10.243832      -278.7488
   5   2.0000     -10.243001      -278.7262
   6   2.0000     -10.242863      -278.7225
   7   2.0000     -10.241709      -278.6911
   8   2.0000     -10.233622      -278.4710
   9   2.0000     -10.224176      -278.2140
  10   2.0000     -10.187237      -277.2088
  11   2.0000     -10.185330      -277.1569
  12   2.0000     -10.184919      -277.1457
  13   2.0000     -10.183491      -277.1069
  14   2.0000     -10.182559      -277.0815
  15   2.0000     -10.182134      -277.0699
  16   2.0000     -10.181698      -277.0581
  17   2.0000     -10.181669      -277.0573
  18   2.0000     -10.181158      -277.0434
  19   2.0000     -10.181065      -277.0409
  20   2.0000     -10.180201      -277.0173
  21   2.0000     -10.179659      -277.0026
  22   2.0000     -10.179441      -276.9967
  23   2.0000     -10.176630      -276.9202
  24   2.0000     -10.175301      -276.8840
  25   2.0000      -6.537246      -177.8875
  26   2.0000      -4.702806      -127.9699
  27   2.0000      -4.702655      -127.9657
  28   2.0000      -4.699765      -127.8871
  29   2.0000      -1.057718       -28.7820
  30   2.0000      -1.056812       -28.7573
  31   2.0000      -1.031906       -28.0796
  32   2.0000      -0.842248       -22.9187
  33   2.0000      -0.835550       -22.7365
  34   2.0000      -0.834849       -22.7174
  35   2.0000      -0.761903       -20.7324
  36   2.0000      -0.747396       -20.3377
  37   2.0000      -0.740174       -20.1412
  38   2.0000      -0.733683       -19.9645
  39   2.0000      -0.729527       -19.8514
  40   2.0000      -0.727439       -19.7946
  41   2.0000      -0.686417       -18.6784
  42   2.0000      -0.682611       -18.5748
  43   2.0000      -0.669671       -18.2227
  44   2.0000      -0.635899       -17.3037
  45   2.0000      -0.598951       -16.2983
  46   2.0000      -0.598265       -16.2796
  47   2.0000      -0.582615       -15.8538
  48   2.0000      -0.579110       -15.7584
  49   2.0000      -0.573873       -15.6159
  50   2.0000      -0.550852       -14.9894
  51   2.0000      -0.529761       -14.4155
  52   2.0000      -0.522364       -14.2143
  53   2.0000      -0.506888       -13.7931
  54   2.0000      -0.481301       -13.0969
  55   2.0000      -0.479225       -13.0404
  56   2.0000      -0.473535       -12.8856
  57   2.0000      -0.470375       -12.7996
  58   2.0000      -0.469888       -12.7863
  59   2.0000      -0.468408       -12.7460
  60   2.0000      -0.465955       -12.6793
  61   2.0000      -0.455762       -12.4019
  62   2.0000      -0.449271       -12.2253
  63   2.0000      -0.436179       -11.8690
  64   2.0000      -0.433939       -11.8081
  65   2.0000      -0.424897       -11.5620
  66   2.0000      -0.418437       -11.3862
  67   2.0000      -0.414644       -11.2831
  68   2.0000      -0.413236       -11.2447
  69   2.0000      -0.399905       -10.8820
  70   2.0000      -0.397715       -10.8224
  71   2.0000      -0.380638       -10.3577
  72   2.0000      -0.375620       -10.2211
  73   2.0000      -0.371419       -10.1068
  74   2.0000      -0.363784        -9.8991
  75   2.0000      -0.357859        -9.7378
  76   2.0000      -0.354477        -9.6458
  77   2.0000      -0.352087        -9.5808
  78   2.0000      -0.346340        -9.4244
  79   2.0000      -0.337980        -9.1969
  80   2.0000      -0.329263        -8.9597
  81   2.0000      -0.321771        -8.7558
  82   2.0000      -0.317071        -8.6279
  83   2.0000      -0.316266        -8.6060
  84   2.0000      -0.312701        -8.5090
  85   2.0000      -0.267620        -7.2823
  86   2.0000      -0.263288        -7.1644
  87   2.0000      -0.252268        -6.8646
  88   2.0000      -0.244260        -6.6466
  89   2.0000      -0.238571        -6.4918
  90   2.0000      -0.226183        -6.1547
  91   2.0000      -0.219293        -5.9673
  92   2.0000      -0.198402        -5.3988
  93   0.0000      -0.016050        -0.4367
  94   0.0000      -0.013306        -0.3621
  95   0.0000      -0.003883        -0.1057
  96   0.0000       0.002020         0.0550
  97   0.0000       0.011513         0.3133

MULLIKEN ATOMIC CHARGES
-----------------------
   0 C :    0.189496
   1 O :   -0.320165
   2 C :    0.216746
   3 C :   -0.076316
   4 C :    0.021263
   5 C :    0.028357
   6 C :   -0.013802
   7 C :   -0.163256
   8 P :    0.447594
   9 C :   -0.177535
  10 C :   -0.004995
  11 C :    0.030847
  12 C :    0.023752
  13 C :   -0.075723
  14 C :    0.194455
  15 O :   -0.315795
  16 C :    0.188874
  17 C :   -0.181031
  18 C :    0.008522
  19 C :    0.032725
  20 C :    0.022510
  21 C :   -0.001305
  22 C :    0.130485
  23 O :   -0.345304
  24 C :    0.213542
  25 H :    0.030629
  26 H :    0.019057
  27 H :    0.020571
  28 H :   -0.037501
  29 H :   -0.021350
  30 H :   -0.028386
  31 H :   -0.006307
  32 H :   -0.001002
  33 H :   -0.025694
  34 H :   -0.020506
  35 H :   -0.036707
  36 H :    0.035788
  37 H :    0.019693
  38 H :    0.016693
  39 H :   -0.008742
  40 H :   -0.022936
  41 H :   -0.018460
  42 H :   -0.031357
  43 H :   -0.007532
  44 H :    0.024216
  45 H :    0.025893
Sum of atomic charges:   -0.0000000

LOEWDIN ATOMIC CHARGES
----------------------
   0 C :    0.080657
   1 O :   -0.099639
   2 C :    0.046225
   3 C :   -0.080163
   4 C :   -0.019658
   5 C :   -0.050929
   6 C :   -0.024671
   7 C :   -0.187775
   8 P :    0.546872
   9 C :   -0.195336
  10 C :   -0.019674
  11 C :   -0.047855
  12 C :   -0.016879
  13 C :   -0.080798
  14 C :    0.040864
  15 O :   -0.096654
  16 C :    0.080998
  17 C :   -0.185389
  18 C :   -0.019578
  19 C :   -0.039828
  20 C :   -0.020155
  21 C :   -0.045621
  22 C :    0.036024
  23 O :   -0.138711
  24 C :    0.082470
  25 H :    0.025519
  26 H :    0.012576
  27 H :    0.014356
  28 H :    0.024543
  29 H :    0.025506
  30 H :    0.023625
  31 H :    0.028000
  32 H :    0.030146
  33 H :    0.024902
  34 H :    0.025986
  35 H :    0.024800
  36 H :    0.028562
  37 H :    0.013143
  38 H :    0.012336
  39 H :    0.029176
  40 H :    0.025362
  41 H :    0.026335
  42 H :    0.028923
  43 H :    0.002642
  44 H :    0.021967
  45 H :    0.006798

  Mayer bond orders larger than 0.100000
B(  0-C ,  1-O ) :   0.9671 B(  0-C , 25-H ) :   0.9753 B(  0-C , 26-H ) :   0.9652
B(  0-C , 27-H ) :   0.9652 B(  1-O ,  2-C ) :   1.1255 B(  2-C ,  3-C ) :   1.3489
B(  2-C ,  7-C ) :   1.3462 B(  3-C ,  4-C ) :   1.3403 B(  3-C , 28-H ) :   0.9874
B(  4-C ,  5-C ) :   1.3902 B(  4-C , 29-H ) :   0.9808 B(  5-C ,  6-C ) :   1.3533
B(  5-C , 30-H ) :   0.9859 B(  6-C ,  7-C ) :   1.4329 B(  6-C , 31-H ) :   0.9725
B(  7-C ,  8-P ) :   0.9175 B(  8-P ,  9-C ) :   0.9051 B(  8-P , 17-C ) :   0.9139
B(  9-C , 10-C ) :   1.4307 B(  9-C , 14-C ) :   1.3459 B( 10-C , 11-C ) :   1.3554
B( 10-C , 32-H ) :   0.9757 B( 11-C , 12-C ) :   1.3906 B( 11-C , 33-H ) :   0.9857
B( 12-C , 13-C ) :   1.3396 B( 12-C , 34-H ) :   0.9804 B( 13-C , 14-C ) :   1.3429
B( 13-C , 35-H ) :   0.9874 B( 14-C , 15-O ) :   1.1371 B( 15-O , 16-C ) :   0.9658
B( 16-C , 36-H ) :   0.9763 B( 16-C , 37-H ) :   0.9655 B( 16-C , 38-H ) :   0.9642
B( 17-C , 18-C ) :   1.3658 B( 17-C , 22-C ) :   1.3927 B( 18-C , 19-C ) :   1.3838
B( 18-C , 39-H ) :   0.9748 B( 19-C , 20-C ) :   1.3595 B( 19-C , 40-H ) :   0.9878
B( 20-C , 21-C ) :   1.3440 B( 20-C , 41-H ) :   0.9807 B( 21-C , 22-C ) :   1.3975
B( 21-C , 42-H ) :   0.9857 B( 22-C , 23-O ) :   1.0862 B( 23-O , 24-C ) :   0.9451
B( 24-C , 43-H ) :   0.9624 B( 24-C , 44-H ) :   0.9785 B( 24-C , 45-H ) :   0.9570

Dispersion correction           -0.112847579
FINAL SINGLE POINT ENERGY     -1378.447840243017

DIPOLE MOMENT
-------------

Method             : SCF
Type of density    : Electron Density
Multiplicity       :   1
Irrep              :   0
Energy             : -1378.3349926644305015 Eh
Relativity type    :
Basis              : AO
                                X                 Y                 Z
Electronic contribution:     -1.478840910      -4.761482747       0.247054260
Nuclear contribution   :      1.624969928       5.639373060      -0.209145128
                        -----------------------------------------
Total Dipole Moment    :      0.146129018       0.877890312       0.037909132
                        -----------------------------------------
Magnitude (a.u.)       :      0.890776174
Magnitude (Debye)      :      2.264173099

Rotational constants in cm-1:             0.008216             0.006763             0.004908
Rotational constants in MHz :           246.305344           202.760408           147.152530

                             ****ORCA TERMINATED NORMALLY****
TOTAL RUN TIME: 0 days 0 hours 23 minutes 50 seconds 800 msec
