                         Program Version 6.0.0  -   RELEASE   -
|  1> ! RIJONX B3LYP def2-SVP D3BJ TIGHTSCF Opt
|  2> %pal
|  3> nprocs 6
|  4> end
|  5>
|  6> * xyz 0 1
|  7> C     -3.749845   -4.245279    0.902439
|  8> C     -2.802428   -3.233071    0.331535
|  9> C     -1.929626   -3.580499   -0.701996
| 10> C     -1.069705   -2.625365   -1.254376
| 11> C     -1.063517   -1.296975   -0.795227
| 12> C     -1.956351   -0.956738    0.230035
| 13> C     -2.818058   -1.911071    0.783897
| 14> P      0.094766   -0.128334   -1.579147
| 15> C     -0.455516    1.504993   -0.986441
| 16> C      0.113636    2.184650    0.099013
| 17> C     -0.363634    3.439373    0.496426
| 18> C     -1.428859    4.042662   -0.177297
| 19> C     -1.992930    3.383364   -1.271749
| 20> C     -1.514328    2.129903   -1.667531
| 21> C     -1.915888    5.401402    0.228565
| 22> C      1.668161   -0.409975   -0.703376
| 23> C      2.834192    0.156796   -1.246167
| 24> C      4.078909   -0.014495   -0.631183
| 25> C      4.189052   -0.752397    0.549514
| 26> C      3.039495   -1.335848    1.088652
| 27> C      1.794619   -1.162893    0.471869
| 28> C      5.526286   -0.967273    1.192729
| 29> H     -3.318131   -5.250878    0.862023
| 30> H     -3.967099   -4.027696    1.953483
| 31> H     -4.687730   -4.239879    0.338642
| 32> H     -1.909446   -4.597360   -1.087355
| 33> H     -0.397872   -2.934207   -2.053653
| 34> H     -2.000973    0.055075    0.624744
| 35> H     -3.501801   -1.608720    1.574168
| 36> H      0.937355    1.754630    0.663036
| 37> H      0.107124    3.939730    1.339919
| 38> H     -2.810365    3.837736   -1.826964
| 39> H     -1.983306    1.642456   -2.520785
| 40> H     -1.357482    6.174792   -0.307698
| 41> H     -1.789963    5.555900    1.305371
| 42> H     -2.982139    5.516533    0.006991
| 43> H      2.785464    0.744447   -2.161525
| 44> H      4.959808    0.434808   -1.084019
| 45> H      3.099928   -1.932050    1.996585
| 46> H      0.930018   -1.628992    0.937454
| 47> H      6.187258   -0.112449    1.014873
| 48> H      5.424637   -1.078367    2.277423
| 49> H      5.996282   -1.868437    0.787101
| 50> **                         ****END OF INPUT****
 Total Charge           Charge          ....    0
 Multiplicity           Mult            ....    1
 Number of Electrons    NEL             ....  162
Dispersion correction           -0.101211357
FINAL SINGLE POINT ENERGY     -1153.082381498706
Dispersion correction             ... done (  0.1 sec)
Dispersion correction           -0.101735789
FINAL SINGLE POINT ENERGY     -1153.085545173920
Dispersion correction             ... done (  0.1 sec)
Dispersion correction           -0.101842706
FINAL SINGLE POINT ENERGY     -1153.086237370467
Dispersion correction             ... done (  0.1 sec)
FINAL SINGLE POINT ENERGY     -1153.086366900753
Dispersion correction             ... done (  0.1 sec)
Dispersion correction           -0.101757214
FINAL SINGLE POINT ENERGY     -1153.086384387344
Dispersion correction             ... done (  0.1 sec)
Dispersion correction           -0.101786258
FINAL SINGLE POINT ENERGY     -1153.086388612082
Dispersion correction             ... done (  0.1 sec)
                    ***********************HURRAY********************

CARTESIAN COORDINATES (ANGSTROEM)
---------------------------------
  C     -3.703450   -4.198079    0.982841
  C     -2.769375   -3.197017    0.351934
  C     -1.918177   -3.565448   -0.702253
  C     -1.083821   -2.629867   -1.313668
  C     -1.054763   -1.294530   -0.877422
  C     -1.902519   -0.922153    0.176572
  C     -2.745271   -1.860451    0.777113
  P      0.105373   -0.142262   -1.737702
  C     -0.443431    1.490171   -1.068704
  C      0.125616    2.118502    0.049124
  C     -0.356445    3.351720    0.494269
  C     -1.420109    3.996468   -0.154414
  C     -1.987316    3.363148   -1.271844
  C     -1.501630    2.137861   -1.728042
  C     -1.916275    5.341478    0.311993
  C      1.664357   -0.418706   -0.785128
  C      2.845295    0.142876   -1.299286
  C      4.059719   -0.004758   -0.629564
  C      4.143175   -0.736630    0.565848
  C      2.963843   -1.304618    1.070129
  C      1.742532   -1.149250    0.410006
  C      5.463952   -0.934564    1.265244
  H     -3.288080   -5.217025    0.946951
  H     -3.913036   -3.948073    2.034297
  H     -4.672623   -4.222247    0.453679
  H     -1.915053   -4.601375   -1.054197
  H     -0.437849   -2.940937   -2.140207
  H     -1.900564    0.108532    0.536801
  H     -3.395606   -1.547243    1.599496
  H      0.948349    1.637743    0.582076
  H      0.101724    3.820911    1.370264
  H     -2.818891    3.842032   -1.797371
  H     -1.955351    1.670602   -2.607274
  H     -1.368333    6.159930   -0.187773
  H     -1.774978    5.470130    1.396203
  H     -2.984665    5.479028    0.084867
  H      2.809539    0.709606   -2.234562
  H      4.963348    0.450451   -1.045783
  H      2.999873   -1.876682    2.002218
  H      0.840914   -1.596338    0.833406
  H      6.143461   -0.085598    1.093413
  H      5.331840   -1.056178    2.351427
  H      5.974701   -1.841160    0.895021

 Multiplicity           Mult            ....    1
 Number of Electrons    NEL             ....  162
 Basis Dimension        Dim             ....  417

ORBITAL ENERGIES
----------------

  NO   OCC          E(Eh)            E(eV)
   0   2.0000     -77.044805     -2096.4957
   1   2.0000     -10.192746      -277.3587
   2   2.0000     -10.192741      -277.3586
   3   2.0000     -10.192685      -277.3571
   4   2.0000     -10.186188      -277.1803
   5   2.0000     -10.186156      -277.1794
   6   2.0000     -10.186138      -277.1789
   7   2.0000     -10.185308      -277.1563
   8   2.0000     -10.185297      -277.1560
   9   2.0000     -10.185277      -277.1555
  10   2.0000     -10.184350      -277.1303
  11   2.0000     -10.184336      -277.1299
  12   2.0000     -10.184310      -277.1292
  13   2.0000     -10.183946      -277.1193
  14   2.0000     -10.183931      -277.1188
  15   2.0000     -10.183914      -277.1184
  16   2.0000     -10.183164      -277.0980
  17   2.0000     -10.183150      -277.0976
  18   2.0000     -10.183124      -277.0969
  19   2.0000     -10.182680      -277.0848
  20   2.0000     -10.182666      -277.0844
  21   2.0000     -10.182633      -277.0835
  22   2.0000      -6.540395      -177.9732
  23   2.0000      -4.705841      -128.0524
  24   2.0000      -4.705836      -128.0523
  25   2.0000      -4.702932      -127.9733
  26   2.0000      -0.849543       -23.1172
  27   2.0000      -0.842862       -22.9354
  28   2.0000      -0.842835       -22.9347
  29   2.0000      -0.776859       -21.1394
  30   2.0000      -0.757929       -20.6243
  31   2.0000      -0.757909       -20.6237
  32   2.0000      -0.731511       -19.9054
  33   2.0000      -0.731278       -19.8991
  34   2.0000      -0.731270       -19.8989
  35   2.0000      -0.697391       -18.9770
  36   2.0000      -0.670867       -18.2552
  37   2.0000      -0.670848       -18.2547
  38   2.0000      -0.610295       -16.6070
  39   2.0000      -0.596923       -16.2431
  40   2.0000      -0.596612       -16.2346
  41   2.0000      -0.596580       -16.2338
  42   2.0000      -0.570294       -15.5185
  43   2.0000      -0.570269       -15.5178
  44   2.0000      -0.547390       -14.8952
  45   2.0000      -0.493803       -13.4371
  46   2.0000      -0.493784       -13.4366
  47   2.0000      -0.465137       -12.6570
  48   2.0000      -0.460307       -12.5256
  49   2.0000      -0.460291       -12.5252
  50   2.0000      -0.459684       -12.5086
  51   2.0000      -0.441306       -12.0086
  52   2.0000      -0.441296       -12.0083
  53   2.0000      -0.431849       -11.7512
  54   2.0000      -0.417319       -11.3558
  55   2.0000      -0.417280       -11.3548
  56   2.0000      -0.417257       -11.3541
  57   2.0000      -0.413542       -11.2530
  58   2.0000      -0.413275       -11.2458
  59   2.0000      -0.413254       -11.2452
  60   2.0000      -0.391844       -10.6626
  61   2.0000      -0.391832       -10.6623
  62   2.0000      -0.383877       -10.4458
  63   2.0000      -0.381445       -10.3796
  64   2.0000      -0.381434       -10.3793
  65   2.0000      -0.361570        -9.8388
  66   2.0000      -0.353139        -9.6094
  67   2.0000      -0.353098        -9.6083
  68   2.0000      -0.349815        -9.5189
  69   2.0000      -0.335305        -9.1241
  70   2.0000      -0.335290        -9.1237
  71   2.0000      -0.334826        -9.1111
  72   2.0000      -0.317348        -8.6355
  73   2.0000      -0.317337        -8.6352
  74   2.0000      -0.264445        -7.1959
  75   2.0000      -0.254987        -6.9385
  76   2.0000      -0.250100        -6.8056
  77   2.0000      -0.250073        -6.8048
  78   2.0000      -0.242875        -6.6090
  79   2.0000      -0.242773        -6.6062
  80   2.0000      -0.206237        -5.6120
  81   0.0000      -0.018130        -0.4933
  82   0.0000      -0.018053        -0.4912
  83   0.0000      -0.016295        -0.4434
  84   0.0000      -0.001387        -0.0377
  85   0.0000       0.000836         0.0228

MULLIKEN ATOMIC CHARGES
-----------------------
   0 C :    0.077998
   1 C :   -0.034464
   2 C :   -0.011324
   3 C :    0.029033
   4 C :   -0.162900
   5 C :    0.023795
   6 C :   -0.006179
   7 P :    0.359935
   8 C :   -0.162975
   9 C :    0.023760
  10 C :   -0.006248
  11 C :   -0.034460
  12 C :   -0.011248
  13 C :    0.029067
  14 C :    0.077993
  15 C :   -0.162851
  16 C :    0.029120
  17 C :   -0.011228
  18 C :   -0.034582
  19 C :   -0.006223
  20 C :    0.023497
  21 C :    0.077979
  22 H :    0.013428
  23 H :    0.013036
  24 H :    0.031694
  25 H :   -0.033275
  26 H :   -0.020206
  27 H :   -0.004904
  28 H :   -0.035631
  29 H :   -0.004867
  30 H :   -0.035581
  31 H :   -0.033273
  32 H :   -0.020211
  33 H :    0.031696
  34 H :    0.013217
  35 H :    0.013270
  36 H :   -0.020222
  37 H :   -0.033318
  38 H :   -0.035663
  39 H :   -0.004823
  40 H :    0.013305
  41 H :    0.013132
  42 H :    0.031699
Sum of atomic charges:   -0.0000000

LOEWDIN ATOMIC CHARGES
----------------------
   0 C :   -0.045491
   1 C :   -0.022847
   2 C :   -0.031109
   3 C :   -0.026735
   4 C :   -0.179923
   5 C :   -0.028211
   6 C :   -0.031372
   7 P :    0.511284
   8 C :   -0.179915
   9 C :   -0.028292
  10 C :   -0.031349
  11 C :   -0.022888
  12 C :   -0.031096
  13 C :   -0.026724
  14 C :   -0.045494
  15 C :   -0.179851
  16 C :   -0.026752
  17 C :   -0.031077
  18 C :   -0.022926
  19 C :   -0.031348
  20 C :   -0.028374
  21 C :   -0.045493
  22 H :    0.029312
  23 H :    0.029209
  24 H :    0.037082
  25 H :    0.023538
  26 H :    0.024115
  27 H :    0.029078
  28 H :    0.023019
  29 H :    0.029055
  30 H :    0.023032
  31 H :    0.023533
  32 H :    0.024124
  33 H :    0.037075
  34 H :    0.029291
  35 H :    0.029246
  36 H :    0.024110
  37 H :    0.023526
  38 H :    0.023008
  39 H :    0.029053
  40 H :    0.029258
  41 H :    0.029238
  42 H :    0.037080

  Mayer bond orders larger than 0.100000
B(  0-C ,  1-C ) :   1.0633 B(  0-C , 22-H ) :   0.9579 B(  0-C , 23-H ) :   0.9580
B(  0-C , 24-H ) :   0.9515 B(  1-C ,  2-C ) :   1.3780 B(  1-C ,  6-C ) :   1.3826
B(  2-C ,  3-C ) :   1.3991 B(  2-C , 25-H ) :   0.9863 B(  3-C ,  4-C ) :   1.3636
B(  3-C , 26-H ) :   0.9807 B(  4-C ,  5-C ) :   1.3789 B(  4-C ,  7-P ) :   0.9291
B(  5-C ,  6-C ) :   1.3762 B(  5-C , 27-H ) :   0.9790 B(  6-C , 28-H ) :   0.9856
B(  7-P ,  8-C ) :   0.9290 B(  7-P , 15-C ) :   0.9286 B(  8-C ,  9-C ) :   1.3787
B(  8-C , 13-C ) :   1.3639 B(  9-C , 10-C ) :   1.3763 B(  9-C , 29-H ) :   0.9791
B( 10-C , 11-C ) :   1.3824 B( 10-C , 30-H ) :   0.9856 B( 11-C , 12-C ) :   1.3781
B( 11-C , 14-C ) :   1.0632 B( 12-C , 13-C ) :   1.3990 B( 12-C , 31-H ) :   0.9863
B( 13-C , 32-H ) :   0.9807 B( 14-C , 33-H ) :   0.9515 B( 14-C , 34-H ) :   0.9579
B( 14-C , 35-H ) :   0.9579 B( 15-C , 16-C ) :   1.3635 B( 15-C , 20-C ) :   1.3792
B( 16-C , 17-C ) :   1.3993 B( 16-C , 36-H ) :   0.9806 B( 17-C , 18-C ) :   1.3778
B( 17-C , 37-H ) :   0.9863 B( 18-C , 19-C ) :   1.3829 B( 18-C , 21-C ) :   1.0633
B( 19-C , 20-C ) :   1.3760 B( 19-C , 38-H ) :   0.9856 B( 20-C , 39-H ) :   0.9791
B( 21-C , 40-H ) :   0.9579 B( 21-C , 41-H ) :   0.9580 B( 21-C , 42-H ) :   0.9515

Dispersion correction           -0.101792175
FINAL SINGLE POINT ENERGY     -1153.086389595041

DIPOLE MOMENT
-------------

Method             : SCF
Type of density    : Electron Density
Multiplicity       :   1
Irrep              :   0
Energy             : -1152.9845974204602044 Eh
Relativity type    :
Basis              : AO
                                X                 Y                 Z
Electronic contribution:      0.679153035      -0.912724939     -11.189699125
Nuclear contribution   :     -0.721305341       0.967112792      11.862049447
                        -----------------------------------------
Total Dipole Moment    :     -0.042152306       0.054387853       0.672350322
                        -----------------------------------------
Magnitude (a.u.)       :      0.675862272
Magnitude (Debye)      :      1.717905371

Rotational constants in cm-1:             0.007706             0.007700             0.004462
Rotational constants in MHz :           231.027560           230.829370           133.753978

                             ****ORCA TERMINATED NORMALLY****
TOTAL RUN TIME: 0 days 0 hours 7 minutes 21 seconds 814 msec
