                         Program Version 6.0.0  -   RELEASE   -
|  1> ! RI BP86 def2-SVP D3BJ TIGHTSCF Opt
|  2> %pal
|  3> nprocs 6
|  4> end
|  5>
|  6> * xyz 0 1
|  7> C      0.759828   -2.320581    1.659910
|  8> C     -0.119300   -1.695805    0.544152
|  9> C     -1.539618   -2.210560    0.862672
| 10> C      0.304118   -2.308257   -0.796648
| 11> P     -0.033059    0.173500    0.614805
| 12> O     -0.111271    0.583972    2.069339
| 13> C      1.593622    0.801114   -0.068378
| 14> C      2.788460   -0.011855    0.474921
| 15> C      1.869706    2.244060    0.431435
| 16> C      1.691223    0.798980   -1.598932
| 17> C     -1.485053    0.951005   -0.276222
| 18> C     -1.777121    0.364025   -1.662684
| 19> C     -1.296772    2.473954   -0.446248
| 20> C     -2.773214    0.830569    0.580670
| 21> H      0.616076   -3.406162    1.721651
| 22> H      1.824695   -2.166693    1.496994
| 23> H      0.511978   -1.898015    2.639159
| 24> H     -1.553589   -3.298015    1.005829
| 25> H     -1.922610   -1.754740    1.781366
| 26> H     -2.238396   -2.007786    0.050330
| 27> H      0.133019   -3.391326   -0.809135
| 28> H      1.366172   -2.159768   -0.997212
| 29> H     -0.250251   -1.882263   -1.633805
| 30> H      3.746369    0.462924    0.229475
| 31> H      2.736775   -0.099838    1.564894
| 32> H      2.831718   -1.011817    0.041895
| 33> H      1.184087    2.977063    0.010958
| 34> H      2.877330    2.577330    0.154689
| 35> H      1.789076    2.305069    1.521709
| 36> H      2.698361    1.076734   -1.932090
| 37> H      1.468381   -0.181611   -2.021319
| 38> H      1.005568    1.515399   -2.053744
| 39> H     -2.121357   -0.669627   -1.605267
| 40> H     -0.897517    0.381249   -2.307377
| 41> H     -2.567126    0.927730   -2.173171
| 42> H     -2.216423    2.959174   -0.795602
| 43> H     -1.021234    2.941302    0.504603
| 44> H     -0.534325    2.709976   -1.189400
| 45> H     -3.601784    1.397622    0.139211
| 46> H     -2.610423    1.216514    1.592335
| 47> H     -3.126120   -0.194549    0.674233
| 48> **                         ****END OF INPUT****
 Total Charge           Charge          ....    0
 Multiplicity           Mult            ....    1
 Number of Electrons    NEL             ....  122
Dispersion correction           -0.087344963
FINAL SINGLE POINT ENERGY      -889.715244692911
Dispersion correction             ... done (  0.1 sec)
Dispersion correction           -0.087724853
FINAL SINGLE POINT ENERGY      -889.725345108057
Dispersion correction             ... done (  0.1 sec)
Dispersion correction           -0.087138229
FINAL SINGLE POINT ENERGY      -889.726713102264
Dispersion correction             ... done (  0.1 sec)
FINAL SINGLE POINT ENERGY      -889.725661190514
FINAL SINGLE POINT ENERGY      -889.728040796738
FINAL SINGLE POINT ENERGY      -889.726688275554
FINAL SINGLE POINT ENERGY      -889.728180816978
FINAL SINGLE POINT ENERGY      -889.727770793119
FINAL SINGLE POINT ENERGY      -889.728162901740
FINAL SINGLE POINT ENERGY      -889.728016144525
FINAL SINGLE POINT ENERGY      -889.728251879230
Dispersion correction             ... done (  0.1 sec)
Dispersion correction           -0.086932073
FINAL SINGLE POINT ENERGY      -889.728255003038
Dispersion correction             ... done (  0.1 sec)
Dispersion correction           -0.086936187
FINAL SINGLE POINT ENERGY      -889.728256964129
Dispersion correction             ... done (  0.1 sec)
                    ***********************HURRAY********************

CARTESIAN COORDINATES (ANGSTROEM)
---------------------------------
  C      0.749490   -2.275259    1.696581
  C     -0.110781   -1.738366    0.529452
  C     -1.558033   -2.193193    0.814633
  C      0.353273   -2.328299   -0.813248
  P     -0.033164    0.182027    0.639916
  O     -0.110352    0.596967    2.110436
  C      1.624478    0.819089   -0.098890
  C      2.774792   -0.050669    0.452367
  C      1.840585    2.237809    0.477481
  C      1.685205    0.835672   -1.635577
  C     -1.519613    0.955959   -0.303641
  C     -1.814655    0.326030   -1.675298
  C     -1.261736    2.468073   -0.476283
  C     -2.740948    0.832258    0.637303
  H      0.520759   -3.351460    1.847913
  H      1.833676   -2.189607    1.509229
  H      0.513281   -1.724227    2.627785
  H     -1.565982   -3.298887    0.921873
  H     -1.937550   -1.760461    1.760523
  H     -2.259924   -1.939283   -0.001516
  H      0.234021   -3.433245   -0.787215
  H      1.421340   -2.124066   -1.018772
  H     -0.240122   -1.954053   -1.669650
  H      3.740388    0.425629    0.179161
  H      2.732073   -0.118666    1.556663
  H      2.784066   -1.073208    0.031046
  H      1.203006    3.000683   -0.001592
  H      2.897868    2.535911    0.313893
  H      1.631194    2.242896    1.565023
  H      2.690699    1.183210   -1.958037
  H      1.526840   -0.166178   -2.078676
  H      0.946393    1.528709   -2.081278
  H     -2.102498   -0.739941   -1.599144
  H     -0.957331    0.400651   -2.371775
  H     -2.668841    0.859082   -2.146671
  H     -2.194449    2.945895   -0.844668
  H     -0.998779    2.942610    0.488853
  H     -0.467910    2.691717   -1.213462
  H     -3.551227    1.493696    0.263974
  H     -2.463640    1.147453    1.662063
  H     -3.145892   -0.192963    0.689227

 Multiplicity           Mult            ....    1
 Number of Electrons    NEL             ....  122
 Basis Dimension        Dim             ....  335

ORBITAL ENERGIES
----------------

  NO   OCC          E(Eh)            E(eV)
   0   2.0000     -76.399947     -2078.9483
   1   2.0000     -18.707202      -509.0489
   2   2.0000      -9.938567      -270.4422
   3   2.0000      -9.938550      -270.4417
   4   2.0000      -9.938504      -270.4404
   5   2.0000      -9.917995      -269.8824
   6   2.0000      -9.917945      -269.8810
   7   2.0000      -9.917883      -269.8793
   8   2.0000      -9.913030      -269.7473
   9   2.0000      -9.912971      -269.7457
  10   2.0000      -9.912933      -269.7446
  11   2.0000      -9.903653      -269.4921
  12   2.0000      -9.903614      -269.4910
  13   2.0000      -9.903591      -269.4904
  14   2.0000      -6.358419      -173.0214
  15   2.0000      -4.579563      -124.6162
  16   2.0000      -4.579560      -124.6162
  17   2.0000      -4.579553      -124.6160
  18   2.0000      -0.838615       -22.8199
  19   2.0000      -0.743105       -20.2209
  20   2.0000      -0.729834       -19.8598
  21   2.0000      -0.729804       -19.8590
  22   2.0000      -0.625675       -17.0255
  23   2.0000      -0.620707       -16.8903
  24   2.0000      -0.620644       -16.8886
  25   2.0000      -0.613270       -16.6879
  26   2.0000      -0.613248       -16.6873
  27   2.0000      -0.601504       -16.3677
  28   2.0000      -0.562650       -15.3105
  29   2.0000      -0.493663       -13.4333
  30   2.0000      -0.493551       -13.4302
  31   2.0000      -0.459381       -12.5004
  32   2.0000      -0.423142       -11.5143
  33   2.0000      -0.423056       -11.5119
  34   2.0000      -0.403017       -10.9667
  35   2.0000      -0.402827       -10.9615
  36   2.0000      -0.402702       -10.9581
  37   2.0000      -0.386397       -10.5144
  38   2.0000      -0.383523       -10.4362
  39   2.0000      -0.383370       -10.4320
  40   2.0000      -0.367334        -9.9957
  41   2.0000      -0.355916        -9.6850
  42   2.0000      -0.350566        -9.5394
  43   2.0000      -0.350364        -9.5339
  44   2.0000      -0.341570        -9.2946
  45   2.0000      -0.341526        -9.2934
  46   2.0000      -0.331118        -9.0102
  47   2.0000      -0.327491        -8.9115
  48   2.0000      -0.321782        -8.7561
  49   2.0000      -0.321661        -8.7528
  50   2.0000      -0.312092        -8.4925
  51   2.0000      -0.309637        -8.4256
  52   2.0000      -0.309402        -8.4193
  53   2.0000      -0.295145        -8.0313
  54   2.0000      -0.295005        -8.0275
  55   2.0000      -0.279521        -7.6062
  56   2.0000      -0.278452        -7.5771
  57   2.0000      -0.272027        -7.4022
  58   2.0000      -0.271964        -7.4005
  59   2.0000      -0.202288        -5.5045
  60   2.0000      -0.202253        -5.5036
  61   0.0000       0.013411         0.3649
  62   0.0000       0.023137         0.6296
  63   0.0000       0.042082         1.1451
  64   0.0000       0.047669         1.2971
  65   0.0000       0.047851         1.3021

MULLIKEN ATOMIC CHARGES
-----------------------
   0 C :    0.031240
   1 C :   -0.407594
   2 C :    0.014355
   3 C :    0.035592
   4 P :    0.624173
   5 O :   -0.478024
   6 C :   -0.407277
   7 C :    0.014628
   8 C :    0.030736
   9 C :    0.035925
  10 C :   -0.408096
  11 C :    0.035721
  12 C :    0.015099
  13 C :    0.031312
  14 H :    0.017771
  15 H :    0.014615
  16 H :    0.057073
  17 H :    0.023320
  18 H :    0.055560
  19 H :    0.030905
  20 H :    0.022733
  21 H :    0.031402
  22 H :    0.024221
  23 H :    0.023394
  24 H :    0.055694
  25 H :    0.030852
  26 H :    0.014791
  27 H :    0.017908
  28 H :    0.057132
  29 H :    0.022781
  30 H :    0.023654
  31 H :    0.031274
  32 H :    0.031544
  33 H :    0.023947
  34 H :    0.022892
  35 H :    0.023185
  36 H :    0.055443
  37 H :    0.030831
  38 H :    0.017898
  39 H :    0.056922
  40 H :    0.014468
Sum of atomic charges:   -0.0000000

LOEWDIN ATOMIC CHARGES
----------------------
   0 C :   -0.067299
   1 C :   -0.178155
   2 C :   -0.064333
   3 C :   -0.069437
   4 P :    0.896785
   5 O :   -0.506331
   6 C :   -0.178239
   7 C :   -0.064301
   8 C :   -0.067264
   9 C :   -0.069469
  10 C :   -0.178445
  11 C :   -0.069547
  12 C :   -0.064283
  13 C :   -0.067154
  14 H :    0.025839
  15 H :    0.023628
  16 H :    0.035424
  17 H :    0.029043
  18 H :    0.034885
  19 H :    0.019838
  20 H :    0.031577
  21 H :    0.023073
  22 H :    0.025770
  23 H :    0.029039
  24 H :    0.034935
  25 H :    0.019825
  26 H :    0.023592
  27 H :    0.025884
  28 H :    0.035374
  29 H :    0.031624
  30 H :    0.025739
  31 H :    0.023093
  32 H :    0.023105
  33 H :    0.025802
  34 H :    0.031652
  35 H :    0.029081
  36 H :    0.034895
  37 H :    0.019873
  38 H :    0.025763
  39 H :    0.035469
  40 H :    0.023651

  Mayer bond orders larger than 0.100000
B(  0-C ,  1-C ) :   1.0227 B(  0-C , 14-H ) :   0.9494 B(  0-C , 15-H ) :   0.9545
B(  0-C , 16-H ) :   0.9441 B(  1-C ,  2-C ) :   1.0358 B(  1-C ,  3-C ) :   1.0177
B(  1-C ,  4-P ) :   0.8410 B(  2-C , 17-H ) :   0.9418 B(  2-C , 18-H ) :   0.9502
B(  2-C , 19-H ) :   0.9476 B(  3-C , 20-H ) :   0.9412 B(  3-C , 21-H ) :   0.9475
B(  3-C , 22-H ) :   0.9528 B(  4-P ,  5-O ) :   1.7798 B(  4-P ,  6-C ) :   0.8422
B(  4-P , 10-C ) :   0.8421 B(  6-C ,  7-C ) :   1.0356 B(  6-C ,  8-C ) :   1.0227
B(  6-C ,  9-C ) :   1.0179 B(  7-C , 23-H ) :   0.9420 B(  7-C , 24-H ) :   0.9499
B(  7-C , 25-H ) :   0.9479 B(  8-C , 26-H ) :   0.9544 B(  8-C , 27-H ) :   0.9493
B(  8-C , 28-H ) :   0.9441 B(  9-C , 29-H ) :   0.9414 B(  9-C , 30-H ) :   0.9528
B(  9-C , 31-H ) :   0.9477 B( 10-C , 11-C ) :   1.0181 B( 10-C , 12-C ) :   1.0357
B( 10-C , 13-C ) :   1.0222 B( 11-C , 32-H ) :   0.9473 B( 11-C , 33-H ) :   0.9527
B( 11-C , 34-H ) :   0.9413 B( 12-C , 35-H ) :   0.9422 B( 12-C , 36-H ) :   0.9498
B( 12-C , 37-H ) :   0.9479 B( 13-C , 38-H ) :   0.9492 B( 13-C , 39-H ) :   0.9443
B( 13-C , 40-H ) :   0.9544

Dispersion correction           -0.086922654
FINAL SINGLE POINT ENERGY      -889.728257486281

DIPOLE MOMENT
-------------

Method             : SCF
Type of density    : Electron Density
Multiplicity       :   1
Irrep              :   0
Energy             :  -889.6413348324304025 Eh
Relativity type    :
Basis              : AO
                                X                 Y                 Z
Electronic contribution:     -0.346251096       1.903144795       6.701260426
Nuclear contribution   :      0.411352744      -2.257174890      -7.954360463
                        -----------------------------------------
Total Dipole Moment    :      0.065101647      -0.354030095      -1.253100037
                        -----------------------------------------
Magnitude (a.u.)       :      1.303777295
Magnitude (Debye)      :      3.313938521

Rotational constants in cm-1:             0.021754             0.021743             0.015855
Rotational constants in MHz :           652.170313           651.825823           475.333122

                             ****ORCA TERMINATED NORMALLY****
TOTAL RUN TIME: 0 days 0 hours 3 minutes 51 seconds 569 msec
