                         Program Version 6.0.0  -   RELEASE   -
|  1> ! RI BP86 def2-SVP D3BJ TIGHTSCF Opt
|  2> %pal
|  3> nprocs 6
|  4> end
|  5>
|  6> * xyz 0 1
|  7> C     -2.095146   -1.696748    0.738402
|  8> C     -0.758087   -1.447327    0.047849
|  9> P      0.106602    0.061776    0.702668
| 10> C     -0.879363    1.386367   -0.150092
| 11> C     -0.374019    2.788154    0.176131
| 12> C     -1.230774    3.830414   -0.487017
| 13> O     -2.192249    3.647029   -1.213328
| 14> O     -0.819309    5.080334   -0.196700
| 15> C      1.620808    0.051317   -0.374801
| 16> C      2.642561   -0.990924    0.068546
| 17> C      3.873473   -0.929257   -0.792357
| 18> O      4.078886   -0.190846   -1.740063
| 19> O      4.803051   -1.825762   -0.407587
| 20> C     -2.735063   -2.954683    0.220519
| 21> O     -2.309377   -3.701161   -0.643861
| 22> O     -3.908820   -3.211155    0.830769
| 23> H     -2.787476   -0.867645    0.556940
| 24> H     -1.951742   -1.807526    1.819574
| 25> H     -0.105411   -2.313006    0.208106
| 26> H     -0.899345   -1.353484   -1.035222
| 27> H     -0.867335    1.218626   -1.233384
| 28> H     -1.923065    1.298027    0.172322
| 29> H      0.653995    2.923155   -0.176886
| 30> H     -0.402053    2.961993    1.258149
| 31> H     -1.444492    5.659396   -0.681193
| 32> H      1.332188   -0.116930   -1.418924
| 33> H      2.080527    1.045143   -0.329680
| 34> H      2.227063   -2.001279   -0.010209
| 35> H      2.943935   -0.812481    1.107344
| 36> H      5.543150   -1.691664   -1.036214
| 37> H     -4.223115   -4.039854    0.411989
| 38> **                         ****END OF INPUT****
 Total Charge           Charge          ....    0
 Multiplicity           Mult            ....    1
 Number of Electrons    NEL             ....  132
Dispersion correction           -0.051732929
FINAL SINGLE POINT ENERGY     -1144.158331035768
Dispersion correction             ... done (  0.1 sec)
Dispersion correction           -0.051371710
FINAL SINGLE POINT ENERGY     -1144.162868289285
Dispersion correction             ... done (  0.1 sec)
Dispersion correction           -0.051260381
FINAL SINGLE POINT ENERGY     -1144.163588257359
Dispersion correction             ... done (  0.1 sec)
FINAL SINGLE POINT ENERGY     -1144.163662186541
FINAL SINGLE POINT ENERGY     -1144.163941566484
FINAL SINGLE POINT ENERGY     -1144.164001070140
FINAL SINGLE POINT ENERGY     -1144.164099417443
FINAL SINGLE POINT ENERGY     -1144.164166711388
FINAL SINGLE POINT ENERGY     -1144.164239981928
FINAL SINGLE POINT ENERGY     -1144.164291331672
FINAL SINGLE POINT ENERGY     -1144.164309203122
Dispersion correction             ... done (  0.1 sec)
Dispersion correction           -0.051270109
FINAL SINGLE POINT ENERGY     -1144.164311308437
Dispersion correction             ... done (  0.1 sec)
Dispersion correction           -0.051270427
FINAL SINGLE POINT ENERGY     -1144.164312345964
Dispersion correction             ... done (  0.1 sec)
                    ***********************HURRAY********************

CARTESIAN COORDINATES (ANGSTROEM)
---------------------------------
  C     -2.131742   -1.683726    0.653265
  C     -0.765311   -1.451257    0.009519
  P      0.104901    0.061548    0.690140
  C     -0.884739    1.389229   -0.186130
  C     -0.361020    2.797353    0.092811
  C     -1.312764    3.879726   -0.384038
  O     -2.470920    3.710959   -0.717283
  O     -0.719015    5.102429   -0.378273
  C      1.621810    0.050357   -0.409733
  C      2.626309   -1.032928   -0.019016
  C      3.967698   -0.862173   -0.709257
  O      4.339004    0.132183   -1.304459
  O      4.744364   -1.968696   -0.568153
  C     -2.705400   -3.051786    0.330323
  O     -2.090187   -3.984307   -0.152189
  O     -4.018682   -3.133486    0.670881
  H     -2.877021   -0.914904    0.361762
  H     -2.062871   -1.615767    1.762969
  H     -0.122368   -2.332418    0.214539
  H     -0.859349   -1.383444   -1.096470
  H     -0.917023    1.192809   -1.280129
  H     -1.932732    1.321676    0.173225
  H      0.633249    2.980949   -0.364944
  H     -0.210990    2.955049    1.185146
  H     -1.412411    5.734078   -0.671859
  H      1.328463   -0.054143   -1.477269
  H      2.113832    1.040956   -0.317280
  H      2.252940   -2.056327   -0.230546
  H      2.821381   -1.015614    1.077505
  H      5.591799   -1.755597   -1.018054
  H     -4.291208   -4.052729    0.454788

 Multiplicity           Mult            ....    1
 Number of Electrons    NEL             ....  132
 Basis Dimension        Dim             ....  303

ORBITAL ENERGIES
----------------

  NO   OCC          E(Eh)            E(eV)
   0   2.0000     -76.340828     -2077.3396
   1   2.0000     -18.829597      -512.3794
   2   2.0000     -18.829539      -512.3778
   3   2.0000     -18.829513      -512.3771
   4   2.0000     -18.772879      -510.8360
   5   2.0000     -18.772870      -510.8358
   6   2.0000     -18.772830      -510.8347
   7   2.0000     -10.039610      -273.1917
   8   2.0000     -10.039597      -273.1913
   9   2.0000     -10.039560      -273.1903
  10   2.0000      -9.939248      -270.4607
  11   2.0000      -9.939237      -270.4604
  12   2.0000      -9.939225      -270.4601
  13   2.0000      -9.926333      -270.1093
  14   2.0000      -9.926317      -270.1088
  15   2.0000      -9.926261      -270.1073
  16   2.0000      -6.310747      -171.7242
  17   2.0000      -4.532142      -123.3258
  18   2.0000      -4.532137      -123.3257
  19   2.0000      -4.528513      -123.2271
  20   2.0000      -1.007425       -27.4134
  21   2.0000      -1.007400       -27.4128
  22   2.0000      -1.007364       -27.4118
  23   2.0000      -0.919718       -25.0268
  24   2.0000      -0.919691       -25.0261
  25   2.0000      -0.919661       -25.0252
  26   2.0000      -0.736214       -20.0334
  27   2.0000      -0.715144       -19.4601
  28   2.0000      -0.715127       -19.4596
  29   2.0000      -0.647413       -17.6170
  30   2.0000      -0.605559       -16.4781
  31   2.0000      -0.605510       -16.4768
  32   2.0000      -0.546163       -14.8618
  33   2.0000      -0.528243       -14.3742
  34   2.0000      -0.528134       -14.3713
  35   2.0000      -0.485930       -13.2228
  36   2.0000      -0.451196       -12.2777
  37   2.0000      -0.451091       -12.2748
  38   2.0000      -0.438874       -11.9424
  39   2.0000      -0.436675       -11.8825
  40   2.0000      -0.436600       -11.8805
  41   2.0000      -0.424389       -11.5482
  42   2.0000      -0.424355       -11.5473
  43   2.0000      -0.423133       -11.5140
  44   2.0000      -0.422965       -11.5095
  45   2.0000      -0.392802       -10.6887
  46   2.0000      -0.380117       -10.3435
  47   2.0000      -0.380041       -10.3414
  48   2.0000      -0.363556        -9.8929
  49   2.0000      -0.363504        -9.8915
  50   2.0000      -0.349063        -9.4985
  51   2.0000      -0.345603        -9.4043
  52   2.0000      -0.345573        -9.4035
  53   2.0000      -0.343059        -9.3351
  54   2.0000      -0.329454        -8.9649
  55   2.0000      -0.317082        -8.6282
  56   2.0000      -0.316950        -8.6246
  57   2.0000      -0.286518        -7.7965
  58   2.0000      -0.286435        -7.7943
  59   2.0000      -0.283678        -7.7193
  60   2.0000      -0.283430        -7.7125
  61   2.0000      -0.283384        -7.7113
  62   2.0000      -0.237358        -6.4588
  63   2.0000      -0.237340        -6.4584
  64   2.0000      -0.237294        -6.4571
  65   2.0000      -0.207550        -5.6477
  66   0.0000      -0.038058        -1.0356
  67   0.0000      -0.037987        -1.0337
  68   0.0000      -0.034859        -0.9486
  69   0.0000       0.013464         0.3664
  70   0.0000       0.013570         0.3693

MULLIKEN ATOMIC CHARGES
-----------------------
   0 C :   -0.008901
   1 C :   -0.176715
   2 P :    0.120273
   3 C :   -0.176840
   4 C :   -0.008382
   5 C :    0.068984
   6 O :   -0.194471
   7 O :   -0.159275
   8 C :   -0.176888
   9 C :   -0.009052
  10 C :    0.068856
  11 O :   -0.194450
  12 O :   -0.159204
  13 C :    0.068869
  14 O :   -0.194417
  15 O :   -0.159190
  16 H :    0.061383
  17 H :    0.066871
  18 H :    0.069394
  19 H :    0.049389
  20 H :    0.049427
  21 H :    0.068927
  22 H :    0.061269
  23 H :    0.066742
  24 H :    0.183375
  25 H :    0.049389
  26 H :    0.069335
  27 H :    0.061672
  28 H :    0.066822
  29 H :    0.183395
  30 H :    0.183415
Sum of atomic charges:   -0.0000000

LOEWDIN ATOMIC CHARGES
----------------------
   0 C :   -0.084342
   1 C :   -0.180693
   2 P :    0.439581
   3 C :   -0.180624
   4 C :   -0.084327
   5 C :    0.061282
   6 O :   -0.168101
   7 O :   -0.035760
   8 C :   -0.180733
   9 C :   -0.084287
  10 C :    0.061307
  11 O :   -0.168071
  12 O :   -0.035690
  13 C :    0.061276
  14 O :   -0.168088
  15 O :   -0.035648
  16 H :    0.046381
  17 H :    0.053981
  18 H :    0.034688
  19 H :    0.027836
  20 H :    0.027836
  21 H :    0.034692
  22 H :    0.046488
  23 H :    0.054031
  24 H :    0.097973
  25 H :    0.027800
  26 H :    0.034713
  27 H :    0.046542
  28 H :    0.053973
  29 H :    0.097986
  30 H :    0.098001

  Mayer bond orders larger than 0.100000
B(  0-C ,  1-C ) :   1.0595 B(  0-C , 13-C ) :   0.9716 B(  0-C , 16-H ) :   0.9190
B(  0-C , 17-H ) :   0.9058 B(  1-C ,  2-P ) :   0.9664 B(  1-C , 18-H ) :   0.9256
B(  1-C , 19-H ) :   0.9248 B(  2-P ,  3-C ) :   0.9664 B(  2-P ,  8-C ) :   0.9666
B(  3-C ,  4-C ) :   1.0593 B(  3-C , 20-H ) :   0.9247 B(  3-C , 21-H ) :   0.9260
B(  4-C ,  5-C ) :   0.9717 B(  4-C , 22-H ) :   0.9189 B(  4-C , 23-H ) :   0.9060
B(  5-C ,  6-O ) :   2.0934 B(  5-C ,  7-O ) :   1.2465 B(  7-O , 24-H ) :   0.9397
B(  8-C ,  9-C ) :   1.0595 B(  8-C , 25-H ) :   0.9247 B(  8-C , 26-H ) :   0.9259
B(  9-C , 10-C ) :   0.9717 B(  9-C , 27-H ) :   0.9189 B(  9-C , 28-H ) :   0.9059
B( 10-C , 11-O ) :   2.0932 B( 10-C , 12-O ) :   1.2465 B( 12-O , 29-H ) :   0.9397
B( 13-C , 14-O ) :   2.0932 B( 13-C , 15-O ) :   1.2465 B( 15-O , 30-H ) :   0.9397

Dispersion correction           -0.051269666
FINAL SINGLE POINT ENERGY     -1144.164313379513

DIPOLE MOMENT
-------------

Method             : SCF
Type of density    : Electron Density
Multiplicity       :   1
Irrep              :   0
Energy             : -1144.1130437136557703 Eh
Relativity type    :
Basis              : AO
                                X                 Y                 Z
Electronic contribution:      0.094135928       0.035767650       0.604095141
Nuclear contribution   :     -0.072098274      -0.021339540      -0.397073946
                        -----------------------------------------
Total Dipole Moment    :      0.022037654       0.014428110       0.207021195
                        -----------------------------------------
Magnitude (a.u.)       :      0.208690210
Magnitude (Debye)      :      0.530448360

Rotational constants in cm-1:             0.009615             0.009593             0.004959
Rotational constants in MHz :           288.249287           287.577740           148.659069

                             ****ORCA TERMINATED NORMALLY****
TOTAL RUN TIME: 0 days 0 hours 2 minutes 15 seconds 704 msec
