                         Program Version 6.0.0  -   RELEASE   -
|  1> ! RIJONX B3LYP def2-SVP D3BJ TIGHTSCF Opt
|  2> %pal
|  3> nprocs 6
|  4> end
|  5>
|  6> * xyz 0 1
|  7> C     -0.447664    1.601124   -1.654014
|  8> C     -0.701314    1.868456   -0.164046
|  9> C      0.244331    3.020615    0.266976
| 10> C     -2.136946    2.396703    0.046499
| 11> P     -0.398943    0.405417    0.960764
| 12> C      1.359878    0.000641    0.696610
| 13> C      2.294721    0.418000    1.657449
| 14> C      3.654543    0.132168    1.508766
| 15> C      4.099891   -0.579288    0.398125
| 16> C      3.186314   -1.005991   -0.561958
| 17> C      1.826597   -0.719137   -0.412641
| 18> C     -1.251080   -1.094993    0.384365
| 19> C     -2.298948   -1.130359   -0.541068
| 20> C     -2.914399   -2.335639   -0.905301
| 21> C     -2.502712   -3.535693   -0.336785
| 22> C     -1.480285   -3.530212    0.602815
| 23> C     -0.870182   -2.324181    0.962223
| 24> H     -0.689489    2.488508   -2.251940
| 25> H      0.602885    1.368097   -1.855664
| 26> H     -1.045278    0.780407   -2.054532
| 27> H      1.297939    2.780163    0.085907
| 28> H      0.135707    3.263333    1.331159
| 29> H      0.029235    3.935460   -0.298868
| 30> H     -2.321199    2.655114    1.096781
| 31> H     -2.907484    1.681753   -0.247470
| 32> H     -2.309276    3.304871   -0.544009
| 33> H      1.971399    0.972828    2.536102
| 34> H      4.363371    0.464674    2.262457
| 35> H      5.156865   -0.803278    0.282074
| 36> H      3.528575   -1.565191   -1.428755
| 37> H      1.136464   -1.068641   -1.177526
| 38> H     -2.674767   -0.230099   -1.009359
| 39> H     -3.722355   -2.329928   -1.632696
| 40> H     -2.982385   -4.468723   -0.618716
| 41> H     -1.155102   -4.459166    1.063340
| 42> H     -0.078905   -2.357811    1.710626
| 43> **                         ****END OF INPUT****
 Total Charge           Charge          ....    0
 Multiplicity           Mult            ....    1
 Number of Electrons    NEL             ....  130
Dispersion correction           -0.085222444
FINAL SINGLE POINT ENERGY      -961.562891651911
Dispersion correction             ... done (  0.1 sec)
Dispersion correction           -0.086537637
FINAL SINGLE POINT ENERGY      -961.567043737980
Dispersion correction             ... done (  0.1 sec)
Dispersion correction           -0.086529212
FINAL SINGLE POINT ENERGY      -961.566604420656
Dispersion correction             ... done (  0.1 sec)
FINAL SINGLE POINT ENERGY      -961.566279561166
FINAL SINGLE POINT ENERGY      -961.567887063540
FINAL SINGLE POINT ENERGY      -961.568007485938
FINAL SINGLE POINT ENERGY      -961.568052210849
FINAL SINGLE POINT ENERGY      -961.568147182031
FINAL SINGLE POINT ENERGY      -961.568184886930
FINAL SINGLE POINT ENERGY      -961.568194555841
FINAL SINGLE POINT ENERGY      -961.568219639154
FINAL SINGLE POINT ENERGY      -961.568228546519
Dispersion correction             ... done (  0.1 sec)
Dispersion correction           -0.086279000
FINAL SINGLE POINT ENERGY      -961.568233616680
Dispersion correction             ... done (  0.1 sec)
Dispersion correction           -0.086276505
FINAL SINGLE POINT ENERGY      -961.568234445808
Dispersion correction             ... done (  0.1 sec)
                    ***********************HURRAY********************

CARTESIAN COORDINATES (ANGSTROEM)
---------------------------------
  C     -0.519052    1.423297   -1.676127
  C     -0.693705    1.833136   -0.210214
  C      0.357183    2.900140    0.146944
  C     -2.087960    2.441592    0.031185
  P     -0.448975    0.415250    1.061383
  C      1.337923    0.005224    0.800957
  C      2.248434    0.463496    1.767462
  C      3.621915    0.245038    1.622553
  C      4.104684   -0.448596    0.510218
  C      3.207884   -0.924732   -0.452596
  C      1.837232   -0.700504   -0.308612
  C     -1.257819   -1.093505    0.360049
  C     -2.458496   -1.070127   -0.371347
  C     -3.091426   -2.254238   -0.762002
  C     -2.546538   -3.493288   -0.420373
  C     -1.363931   -3.535474    0.324789
  C     -0.732320   -2.353379    0.712897
  H     -0.686308    2.297933   -2.329568
  H      0.500439    1.058930   -1.869278
  H     -1.224938    0.638129   -1.981723
  H      1.379825    2.558590   -0.068504
  H      0.307850    3.179868    1.212173
  H      0.170479    3.810399   -0.447988
  H     -2.216420    2.735213    1.084867
  H     -2.907231    1.755023   -0.224768
  H     -2.210844    3.344080   -0.592050
  H      1.871156    0.998651    2.643236
  H      4.314895    0.611193    2.384563
  H      5.177281   -0.625423    0.395819
  H      3.579027   -1.474785   -1.321489
  H      1.146825   -1.090364   -1.058810
  H     -2.918350   -0.121728   -0.646015
  H     -4.019070   -2.202278   -1.338135
  H     -3.040739   -4.418609   -0.726594
  H     -0.928031   -4.497279    0.608058
  H      0.189124   -2.410873    1.296732

 Multiplicity           Mult            ....    1
 Number of Electrons    NEL             ....  130
 Basis Dimension        Dim             ....  337

ORBITAL ENERGIES
----------------

  NO   OCC          E(Eh)            E(eV)
   0   2.0000     -77.043938     -2096.4721
   1   2.0000     -10.200298      -277.5642
   2   2.0000     -10.192785      -277.3598
   3   2.0000     -10.191525      -277.3255
   4   2.0000     -10.191412      -277.3224
   5   2.0000     -10.191405      -277.3222
   6   2.0000     -10.191065      -277.3130
   7   2.0000     -10.190984      -277.3108
   8   2.0000     -10.190643      -277.3015
   9   2.0000     -10.188271      -277.2370
  10   2.0000     -10.187799      -277.2241
  11   2.0000     -10.187289      -277.2102
  12   2.0000     -10.186625      -277.1922
  13   2.0000     -10.186345      -277.1845
  14   2.0000     -10.178798      -276.9792
  15   2.0000     -10.175955      -276.9018
  16   2.0000     -10.173768      -276.8423
  17   2.0000      -6.539844      -177.9582
  18   2.0000      -4.705506      -128.0433
  19   2.0000      -4.704999      -128.0295
  20   2.0000      -4.702270      -127.9553
  21   2.0000      -0.849189       -23.1076
  22   2.0000      -0.841957       -22.9108
  23   2.0000      -0.803548       -21.8656
  24   2.0000      -0.750334       -20.4176
  25   2.0000      -0.738137       -20.0857
  26   2.0000      -0.734692       -19.9920
  27   2.0000      -0.730781       -19.8856
  28   2.0000      -0.676452       -18.4072
  29   2.0000      -0.673725       -18.3330
  30   2.0000      -0.637686       -17.3523
  31   2.0000      -0.600430       -16.3385
  32   2.0000      -0.594915       -16.1885
  33   2.0000      -0.588686       -16.0190
  34   2.0000      -0.567140       -15.4327
  35   2.0000      -0.530162       -14.4264
  36   2.0000      -0.512869       -13.9559
  37   2.0000      -0.488991       -13.3061
  38   2.0000      -0.460538       -12.5319
  39   2.0000      -0.453829       -12.3493
  40   2.0000      -0.449059       -12.2195
  41   2.0000      -0.446315       -12.1448
  42   2.0000      -0.437164       -11.8958
  43   2.0000      -0.436019       -11.8647
  44   2.0000      -0.428554       -11.6615
  45   2.0000      -0.421010       -11.4563
  46   2.0000      -0.413413       -11.2495
  47   2.0000      -0.402955       -10.9650
  48   2.0000      -0.386248       -10.5103
  49   2.0000      -0.382097       -10.3974
  50   2.0000      -0.372685       -10.1413
  51   2.0000      -0.366659        -9.9773
  52   2.0000      -0.366098        -9.9620
  53   2.0000      -0.359733        -9.7888
  54   2.0000      -0.346231        -9.4214
  55   2.0000      -0.345296        -9.3960
  56   2.0000      -0.334004        -9.0887
  57   2.0000      -0.332701        -9.0532
  58   2.0000      -0.313909        -8.5419
  59   2.0000      -0.298371        -8.1191
  60   2.0000      -0.269635        -7.3371
  61   2.0000      -0.258780        -7.0418
  62   2.0000      -0.256215        -6.9720
  63   2.0000      -0.250527        -6.8172
  64   2.0000      -0.208996        -5.6871
  65   0.0000      -0.023708        -0.6451
  66   0.0000      -0.014379        -0.3913
  67   0.0000      -0.014287        -0.3888
  68   0.0000      -0.001956        -0.0532
  69   0.0000       0.050657         1.3784

MULLIKEN ATOMIC CHARGES
-----------------------
   0 C :    0.100169
   1 C :   -0.406530
   2 C :    0.069198
   3 C :    0.097164
   4 P :    0.326774
   5 C :   -0.166558
   6 C :    0.024405
   7 C :    0.021030
   8 C :    0.023632
   9 C :    0.018825
  10 C :    0.026589
  11 C :   -0.105753
  12 C :   -0.007382
  13 C :    0.023991
  14 C :    0.017863
  15 C :    0.021371
  16 C :   -0.004327
  17 H :   -0.001106
  18 H :    0.009114
  19 H :    0.003778
  20 H :    0.031037
  21 H :    0.011488
  22 H :    0.003681
  23 H :    0.014797
  24 H :    0.002561
  25 H :    0.003884
  26 H :   -0.018172
  27 H :   -0.015945
  28 H :   -0.014776
  29 H :   -0.017735
  30 H :    0.001668
  31 H :   -0.027312
  32 H :   -0.022356
  33 H :   -0.018489
  34 H :   -0.018021
  35 H :   -0.008557
Sum of atomic charges:   -0.0000000

LOEWDIN ATOMIC CHARGES
----------------------
   0 C :   -0.052641
   1 C :   -0.167442
   2 C :   -0.051308
   3 C :   -0.052615
   4 P :    0.507946
   5 C :   -0.175467
   6 C :   -0.028300
   7 C :   -0.027854
   8 C :   -0.020707
   9 C :   -0.027950
  10 C :   -0.023669
  11 C :   -0.172562
  12 C :   -0.040770
  13 C :   -0.025416
  14 C :   -0.029742
  15 C :   -0.025183
  16 C :   -0.031101
  17 H :    0.020432
  18 H :    0.022520
  19 H :    0.020176
  20 H :    0.024355
  21 H :    0.019378
  22 H :    0.021587
  23 H :    0.022738
  24 H :    0.016400
  25 H :    0.021332
  26 H :    0.022848
  27 H :    0.027402
  28 H :    0.027177
  29 H :    0.027127
  30 H :    0.027496
  31 H :    0.018785
  32 H :    0.026155
  33 H :    0.025899
  34 H :    0.026878
  35 H :    0.026095

  Mayer bond orders larger than 0.100000
B(  0-C ,  1-C ) :   1.0184 B(  0-C , 17-H ) :   0.9522 B(  0-C , 18-H ) :   0.9555
B(  0-C , 19-H ) :   0.9592 B(  1-C ,  2-C ) :   1.0265 B(  1-C ,  3-C ) :   1.0219
B(  1-C ,  4-P ) :   0.9332 B(  2-C , 20-H ) :   0.9605 B(  2-C , 21-H ) :   0.9604
B(  2-C , 22-H ) :   0.9575 B(  3-C , 23-H ) :   0.9576 B(  3-C , 24-H ) :   0.9643
B(  3-C , 25-H ) :   0.9539 B(  4-P ,  5-C ) :   0.9268 B(  4-P , 11-C ) :   0.9197
B(  5-C ,  6-C ) :   1.3832 B(  5-C , 10-C ) :   1.3640 B(  6-C ,  7-C ) :   1.3829
B(  6-C , 26-H ) :   0.9829 B(  7-C ,  8-C ) :   1.3868 B(  7-C , 27-H ) :   0.9856
B(  8-C ,  9-C ) :   1.3696 B(  8-C , 28-H ) :   0.9848 B(  9-C , 10-C ) :   1.4055
B(  9-C , 29-H ) :   0.9843 B( 10-C , 30-H ) :   0.9707 B( 11-C , 12-C ) :   1.3744
B( 11-C , 16-C ) :   1.3637 B( 12-C , 13-C ) :   1.4103 B( 12-C , 31-H ) :   0.9733
B( 13-C , 14-C ) :   1.3836 B( 13-C , 32-H ) :   0.9811 B( 14-C , 15-C ) :   1.3701
B( 14-C , 33-H ) :   0.9851 B( 15-C , 16-C ) :   1.4165 B( 15-C , 34-H ) :   0.9837
B( 16-C , 35-H ) :   0.9791

Dispersion correction           -0.086277436
FINAL SINGLE POINT ENERGY      -961.568234743703

DIPOLE MOMENT
-------------

Method             : SCF
Type of density    : Electron Density
Multiplicity       :   1
Irrep              :   0
Energy             :  -961.4819573072045387 Eh
Relativity type    :
Basis              : AO
                                X                 Y                 Z
Electronic contribution:      1.849169096      -9.548611444       7.161043729
Nuclear contribution   :     -1.590143887       9.571438014      -7.573280243
                        -----------------------------------------
Total Dipole Moment    :      0.259025210       0.022826570      -0.412236514
                        -----------------------------------------
Magnitude (a.u.)       :      0.487395173
Magnitude (Debye)      :      1.238860077

Rotational constants in cm-1:             0.019025             0.012046             0.008580
Rotational constants in MHz :           570.357394           361.131122           257.223237

                             ****ORCA TERMINATED NORMALLY****
TOTAL RUN TIME: 0 days 0 hours 11 minutes 40 seconds 600 msec
