                         Program Version 6.0.0  -   RELEASE   -
|  1> ! RI BP86 def2-SVP D3BJ TIGHTSCF Opt
|  2> %pal
|  3> nprocs 6
|  4> end
|  5>
|  6> * xyz 0 1
|  7> C      3.634449    0.871411    1.082069
|  8> C      3.186247    0.754588   -0.231917
|  9> C      1.873977    0.355518   -0.490414
| 10> C      0.996390    0.071411    0.564743
| 11> C      1.460751    0.190481    1.881101
| 12> C      2.772225    0.589287    2.138873
| 13> P     -0.671784   -0.441175    0.265954
| 14> O     -1.485944   -0.764960    1.493049
| 15> C     -0.603116   -1.899590   -0.812654
| 16> C     -1.761103   -2.873238   -0.631472
| 17> C     -3.014413   -2.327485   -1.159777
| 18> N     -3.981453   -1.870982   -1.609400
| 19> C     -1.522171    0.820689   -0.712978
| 20> C     -1.967393    2.027048    0.103135
| 21> C     -0.844917    2.915066    0.423243
| 22> N      0.040379    3.629750    0.648148
| 23> H      4.653623    1.191089    1.283653
| 24> H      3.859379    0.983755   -1.054328
| 25> H      1.544807    0.276379   -1.523182
| 26> H      0.792539   -0.022520    2.714407
| 27> H      3.117911    0.688051    3.164788
| 28> H      0.320112   -2.436130   -0.563353
| 29> H     -0.514600   -1.575790   -1.855965
| 30> H     -1.528386   -3.803087   -1.163293
| 31> H     -1.879945   -3.132338    0.425563
| 32> H     -2.417754    0.363861   -1.140676
| 33> H     -0.891395    1.121804   -1.556875
| 34> H     -2.705398    2.593597   -0.476682
| 35> H     -2.463019    1.703510    1.024093
| 36> **                         ****END OF INPUT****
 Total Charge           Charge          ....    0
 Multiplicity           Mult            ....    1
 Number of Electrons    NEL             ....  122
Dispersion correction           -0.064805747
FINAL SINGLE POINT ENERGY      -990.689185809216
Dispersion correction             ... done (  0.1 sec)
Dispersion correction           -0.064831697
FINAL SINGLE POINT ENERGY      -990.696468678704
Dispersion correction             ... done (  0.1 sec)
Dispersion correction           -0.065111153
FINAL SINGLE POINT ENERGY      -990.698154186745
Dispersion correction             ... done (  0.1 sec)
FINAL SINGLE POINT ENERGY      -990.698444006707
FINAL SINGLE POINT ENERGY      -990.698500478471
FINAL SINGLE POINT ENERGY      -990.698529315366
FINAL SINGLE POINT ENERGY      -990.698540089394
FINAL SINGLE POINT ENERGY      -990.698547271523
FINAL SINGLE POINT ENERGY      -990.698550838489
FINAL SINGLE POINT ENERGY      -990.698557548061
FINAL SINGLE POINT ENERGY      -990.698562504705
FINAL SINGLE POINT ENERGY      -990.698569305835
Dispersion correction             ... done (  0.1 sec)
Dispersion correction           -0.065172431
FINAL SINGLE POINT ENERGY      -990.698573126103
Dispersion correction             ... done (  0.1 sec)
Dispersion correction           -0.065172148
FINAL SINGLE POINT ENERGY      -990.698574862539
Dispersion correction             ... done (  0.1 sec)
                    ***********************HURRAY********************

CARTESIAN COORDINATES (ANGSTROEM)
---------------------------------
  C      3.585981    1.027058    1.055563
  C      3.142329    0.888776   -0.271486
  C      1.854175    0.400361   -0.531948
  C      1.010152    0.046726    0.540601
  C      1.456560    0.179990    1.869499
  C      2.745860    0.671297    2.123564
  P     -0.700601   -0.530875    0.303237
  O     -1.434178   -0.814479    1.605710
  C     -0.583596   -2.042619   -0.764269
  C     -1.878484   -2.878532   -0.668607
  C     -3.001644   -2.273646   -1.387443
  N     -3.871726   -1.741621   -1.964001
  C     -1.542279    0.768163   -0.708113
  C     -1.851764    2.000785    0.168253
  C     -0.679035    2.832172    0.456338
  N      0.260485    3.498414    0.668471
  H      4.593363    1.422129    1.256917
  H      3.800617    1.173602   -1.106094
  H      1.508840    0.309163   -1.574463
  H      0.769790   -0.092387    2.685768
  H      3.093606    0.787087    3.161296
  H      0.259562   -2.633402   -0.352430
  H     -0.330660   -1.778855   -1.811556
  H     -1.713375   -3.901214   -1.067684
  H     -2.161347   -2.971665    0.402705
  H     -2.494578    0.327354   -1.065370
  H     -0.935369    1.033775   -1.597629
  H     -2.613587    2.638771   -0.326832
  H     -2.289100    1.653674    1.129856

 Multiplicity           Mult            ....    1
 Number of Electrons    NEL             ....  122
 Basis Dimension        Dim             ....  293

ORBITAL ENERGIES
----------------

  NO   OCC          E(Eh)            E(eV)
   0   2.0000     -76.430520     -2079.7802
   1   2.0000     -18.736739      -509.8526
   2   2.0000     -14.022527      -381.5724
   3   2.0000     -14.008626      -381.1941
   4   2.0000      -9.982186      -271.6291
   5   2.0000      -9.973719      -271.3987
   6   2.0000      -9.966006      -271.1888
   7   2.0000      -9.959398      -271.0090
   8   2.0000      -9.952351      -270.8172
   9   2.0000      -9.950522      -270.7675
  10   2.0000      -9.943769      -270.5837
  11   2.0000      -9.938316      -270.4353
  12   2.0000      -9.936613      -270.3890
  13   2.0000      -9.936442      -270.3843
  14   2.0000      -9.935753      -270.3656
  15   2.0000      -9.933821      -270.3130
  16   2.0000      -6.390181      -173.8857
  17   2.0000      -4.611415      -125.4830
  18   2.0000      -4.611214      -125.4775
  19   2.0000      -4.611099      -125.4744
  20   2.0000      -0.870645       -23.6915
  21   2.0000      -0.826568       -22.4921
  22   2.0000      -0.812450       -22.1079
  23   2.0000      -0.787367       -21.4253
  24   2.0000      -0.749850       -20.4045
  25   2.0000      -0.738796       -20.1037
  26   2.0000      -0.693379       -18.8678
  27   2.0000      -0.685223       -18.6459
  28   2.0000      -0.644737       -17.5442
  29   2.0000      -0.613692       -16.6994
  30   2.0000      -0.564950       -15.3731
  31   2.0000      -0.556779       -15.1507
  32   2.0000      -0.511906       -13.9297
  33   2.0000      -0.483496       -13.1566
  34   2.0000      -0.473993       -12.8980
  35   2.0000      -0.472141       -12.8476
  36   2.0000      -0.454096       -12.3566
  37   2.0000      -0.435086       -11.8393
  38   2.0000      -0.422932       -11.5086
  39   2.0000      -0.413632       -11.2555
  40   2.0000      -0.411523       -11.1981
  41   2.0000      -0.398906       -10.8548
  42   2.0000      -0.390776       -10.6336
  43   2.0000      -0.381838       -10.3903
  44   2.0000      -0.375481       -10.2174
  45   2.0000      -0.363756        -9.8983
  46   2.0000      -0.353570        -9.6211
  47   2.0000      -0.339440        -9.2366
  48   2.0000      -0.328089        -8.9278
  49   2.0000      -0.320440        -8.7196
  50   2.0000      -0.316166        -8.6033
  51   2.0000      -0.313460        -8.5297
  52   2.0000      -0.305993        -8.3265
  53   2.0000      -0.301549        -8.2056
  54   2.0000      -0.299687        -8.1549
  55   2.0000      -0.290765        -7.9121
  56   2.0000      -0.288308        -7.8452
  57   2.0000      -0.248360        -6.7582
  58   2.0000      -0.247117        -6.7244
  59   2.0000      -0.239199        -6.5089
  60   2.0000      -0.236537        -6.4365
  61   0.0000      -0.074024        -2.0143
  62   0.0000      -0.059069        -1.6073
  63   0.0000      -0.029028        -0.7899
  64   0.0000      -0.019961        -0.5432
  65   0.0000      -0.012818        -0.3488

MULLIKEN ATOMIC CHARGES
-----------------------
   0 C :    0.016841
   1 C :    0.008232
   2 C :   -0.002062
   3 C :   -0.118805
   4 C :    0.012343
   5 C :    0.011635
   6 P :    0.476446
   7 O :   -0.457824
   8 C :   -0.157034
   9 C :    0.060040
  10 C :   -0.245357
  11 N :    0.017806
  12 C :   -0.151139
  13 C :    0.043657
  14 C :   -0.260568
  15 N :    0.042467
  16 H :    0.014434
  17 H :    0.010644
  18 H :   -0.000756
  19 H :    0.024184
  20 H :    0.014799
  21 H :    0.082819
  22 H :    0.067889
  23 H :    0.076232
  24 H :    0.094087
  25 H :    0.088154
  26 H :    0.063504
  27 H :    0.078606
  28 H :    0.088729
Sum of atomic charges:   -0.0000000

LOEWDIN ATOMIC CHARGES
----------------------
   0 C :   -0.010057
   1 C :   -0.020444
   2 C :   -0.032293
   3 C :   -0.196966
   4 C :   -0.012910
   5 C :   -0.018211
   6 P :    0.877792
   7 O :   -0.495618
   8 C :   -0.179783
   9 C :   -0.066174
  10 C :   -0.035680
  11 N :   -0.076661
  12 C :   -0.180449
  13 C :   -0.065199
  14 C :   -0.044136
  15 N :   -0.070998
  16 H :    0.037562
  17 H :    0.036833
  18 H :    0.027417
  19 H :    0.039116
  20 H :    0.038158
  21 H :    0.050315
  22 H :    0.040102
  23 H :    0.065640
  24 H :    0.069666
  25 H :    0.049639
  26 H :    0.038962
  27 H :    0.067346
  28 H :    0.067032

  Mayer bond orders larger than 0.100000
B(  0-C ,  1-C ) :   1.3795 B(  0-C ,  5-C ) :   1.3863 B(  0-C , 16-H ) :   0.9749
B(  1-C ,  2-C ) :   1.4123 B(  1-C , 17-H ) :   0.9742 B(  2-C ,  3-C ) :   1.3305
B(  2-C , 18-H ) :   0.9721 B(  3-C ,  4-C ) :   1.3825 B(  3-C ,  6-P ) :   0.8872
B(  4-C ,  5-C ) :   1.3700 B(  4-C , 19-H ) :   0.9711 B(  5-C , 20-H ) :   0.9779
B(  6-P ,  7-O ) :   1.8577 B(  6-P ,  8-C ) :   0.8998 B(  6-P , 12-C ) :   0.9227
B(  8-C ,  9-C ) :   1.0685 B(  8-C , 21-H ) :   0.9236 B(  8-C , 22-H ) :   0.9182
B(  9-C , 10-C ) :   1.1248 B(  9-C , 23-H ) :   0.8894 B(  9-C , 24-H ) :   0.8849
B( 10-C , 11-N ) :   2.9532 B( 12-C , 13-C ) :   1.0681 B( 12-C , 25-H ) :   0.9048
B( 12-C , 26-H ) :   0.9137 B( 13-C , 14-C ) :   1.1226 B( 13-C , 27-H ) :   0.8947
B( 13-C , 28-H ) :   0.8844 B( 14-C , 15-N ) :   3.0202

Dispersion correction           -0.065166837
FINAL SINGLE POINT ENERGY      -990.698575339650

DIPOLE MOMENT
-------------

Method             : SCF
Type of density    : Electron Density
Multiplicity       :   1
Irrep              :   0
Energy             :  -990.6334085022328964 Eh
Relativity type    :
Basis              : AO
                                X                 Y                 Z
Electronic contribution:     -2.973545241       1.059418122       1.762805666
Nuclear contribution   :      4.058004315      -2.046572338      -2.419255722
                        -----------------------------------------
Total Dipole Moment    :      1.084459074      -0.987154216      -0.656450056
                        -----------------------------------------
Magnitude (a.u.)       :      1.606689642
Magnitude (Debye)      :      4.083880517

Rotational constants in cm-1:             0.026725             0.011153             0.009412
Rotational constants in MHz :           801.189327           334.369320           282.176258

                             ****ORCA TERMINATED NORMALLY****
TOTAL RUN TIME: 0 days 0 hours 3 minutes 0 seconds 182 msec
