                         Program Version 6.0.0  -   RELEASE   -
|  1> ! RIJCOSX M062X def2-TZVP D3ZERO NormalSCF
|  2> %pal
|  3> nprocs 6
|  4> end
|  5>
|  6> * xyz 0 1
|  7>   C          -2.23066715554733     -3.11525515646854      0.31578004424534
|  8>   C          -1.41536062553906     -2.67875408280777      1.33733317387739
|  9>   O          -0.74777344476846     -1.55149152621858      0.97190090620429
| 10>   C          -1.13094402124557     -1.24001739755905     -0.31468755660718
| 11>   C          -2.04649194255005     -2.18057948331887     -0.75660677152527
| 12>   P          -0.46670684985604      0.20995608503711     -1.19573418475870
| 13>   C           1.33021639657094     -0.06298342730904     -1.06694726192897
| 14>   C           2.28573074274086     -0.04144360770427     -2.06930569090449
| 15>   C           3.54772958245349     -0.31478994443590     -1.44464087651874
| 16>   C           3.27350251683710     -0.48559114429576     -0.10509392319681
| 17>   O           1.94332941040709     -0.33654981602325      0.13655669453535
| 18>   C          -0.73239093601662      1.54205120710901      0.01872004093846
| 19>   C          -1.39696648913467      2.74609938593140     -0.14470891406699
| 20>   C          -1.32269945161177      3.43417711070243      1.11172019021128
| 21>   C          -0.61650532484308      2.60233585542842      1.95324133023156
| 22>   O          -0.25520149710602      1.46025148740471      1.30899140136594
| 23>   H          -2.88250797363978     -3.99584027111482      0.33058617779038
| 24>   H          -1.20991229283208     -3.04883644044276      2.34743655395063
| 25>   H          -2.52663816029905     -2.18965240879348     -1.74156139815104
| 26>   H           2.09233984325308      0.14966707482895     -3.13082146794046
| 27>   H           4.53108745447301     -0.37839316801726     -1.92371459063117
| 28>   H           3.89504116958374     -0.71032692112115      0.76821451438158
| 29>   H          -1.87997676367082      3.08806235700515     -1.06694031379836
| 30>   H          -1.73666852484084      4.41756105081129      1.36099493082201
| 31>   H          -0.30156666281806      2.68034518137202      2.99928699147396
| 32> **                         ****END OF INPUT****

CARTESIAN COORDINATES (ANGSTROEM)
---------------------------------
  C     -2.230667   -3.115255    0.315780
  C     -1.415361   -2.678754    1.337333
  O     -0.747773   -1.551492    0.971901
  C     -1.130944   -1.240017   -0.314688
  C     -2.046492   -2.180579   -0.756607
  P     -0.466707    0.209956   -1.195734
  C      1.330216   -0.062983   -1.066947
  C      2.285731   -0.041444   -2.069306
  C      3.547730   -0.314790   -1.444641
  C      3.273503   -0.485591   -0.105094
  O      1.943329   -0.336550    0.136557
  C     -0.732391    1.542051    0.018720
  C     -1.396966    2.746099   -0.144709
  C     -1.322699    3.434177    1.111720
  C     -0.616505    2.602336    1.953241
  O     -0.255201    1.460251    1.308991
  H     -2.882508   -3.995840    0.330586
  H     -1.209912   -3.048836    2.347437
  H     -2.526638   -2.189652   -1.741561
  H      2.092340    0.149667   -3.130821
  H      4.531087   -0.378393   -1.923715
  H      3.895041   -0.710327    0.768215
  H     -1.879977    3.088062   -1.066940
  H     -1.736669    4.417561    1.360995
  H     -0.301567    2.680345    2.999287

 Total Charge           Charge          ....    0
 Multiplicity           Mult            ....    1
 Number of Electrons    NEL             ....  120
 Basis Dimension        Dim             ....  556

ORBITAL ENERGIES
----------------

  NO   OCC          E(Eh)            E(eV)
   0   2.0000     -78.049534     -2123.8358
   1   2.0000     -19.694474      -535.9139
   2   2.0000     -19.694430      -535.9127
   3   2.0000     -19.694426      -535.9126
   4   2.0000     -10.598880      -288.4102
   5   2.0000     -10.598809      -288.4082
   6   2.0000     -10.598800      -288.4080
   7   2.0000     -10.594595      -288.2936
   8   2.0000     -10.594575      -288.2930
   9   2.0000     -10.594566      -288.2928
  10   2.0000     -10.548885      -287.0498
  11   2.0000     -10.548854      -287.0489
  12   2.0000     -10.548836      -287.0484
  13   2.0000     -10.544487      -286.9301
  14   2.0000     -10.544456      -286.9292
  15   2.0000     -10.544421      -286.9283
  16   2.0000      -6.864349      -186.7884
  17   2.0000      -4.979544      -135.5003
  18   2.0000      -4.978598      -135.4745
  19   2.0000      -4.978591      -135.4744
  20   2.0000      -1.231909       -33.5220
  21   2.0000      -1.228068       -33.4174
  22   2.0000      -1.228040       -33.4167
  23   2.0000      -0.899074       -24.4651
  24   2.0000      -0.896237       -24.3878
  25   2.0000      -0.896205       -24.3870
  26   2.0000      -0.870495       -23.6874
  27   2.0000      -0.831648       -22.6303
  28   2.0000      -0.831618       -22.6295
  29   2.0000      -0.730901       -19.8888
  30   2.0000      -0.681388       -18.5415
  31   2.0000      -0.674781       -18.3617
  32   2.0000      -0.674753       -18.3610
  33   2.0000      -0.640390       -17.4259
  34   2.0000      -0.640366       -17.4252
  35   2.0000      -0.632216       -17.2035
  36   2.0000      -0.607280       -16.5249
  37   2.0000      -0.607245       -16.5240
  38   2.0000      -0.560927       -15.2636
  39   2.0000      -0.537585       -14.6284
  40   2.0000      -0.537570       -14.6280
  41   2.0000      -0.522849       -14.2274
  42   2.0000      -0.500381       -13.6160
  43   2.0000      -0.500371       -13.6158
  44   2.0000      -0.483238       -13.1496
  45   2.0000      -0.469335       -12.7713
  46   2.0000      -0.466195       -12.6858
  47   2.0000      -0.466158       -12.6848
  48   2.0000      -0.453850       -12.3499
  49   2.0000      -0.453802       -12.3486
  50   2.0000      -0.451315       -12.2809
  51   2.0000      -0.417357       -11.3569
  52   2.0000      -0.417304       -11.3554
  53   2.0000      -0.344457        -9.3731
  54   2.0000      -0.344432        -9.3725
  55   2.0000      -0.340131        -9.2554
  56   2.0000      -0.318654        -8.6710
  57   2.0000      -0.291737        -7.9386
  58   2.0000      -0.291676        -7.9369
  59   2.0000      -0.271404        -7.3853
  60   0.0000       0.007264         0.1977
  61   0.0000       0.007294         0.1985
  62   0.0000       0.053775         1.4633
  63   0.0000       0.083023         2.2592
  64   0.0000       0.083127         2.2620

MULLIKEN ATOMIC CHARGES
-----------------------
   0 C :   -0.206393
   1 C :    0.002709
   2 O :   -0.206227
   3 C :    0.084283
   4 C :   -0.182258
   5 P :    0.107231
   6 C :    0.085969
   7 C :   -0.182457
   8 C :   -0.209216
   9 C :    0.004297
  10 O :   -0.206471
  11 C :    0.087159
  12 C :   -0.182922
  13 C :   -0.207900
  14 C :    0.003026
  15 O :   -0.206059
  16 H :    0.149235
  17 H :    0.160882
  18 H :    0.161429
  19 H :    0.161172
  20 H :    0.149772
  21 H :    0.161070
  22 H :    0.161147
  23 H :    0.149566
  24 H :    0.160955
Sum of atomic charges:   -0.0000000

LOEWDIN ATOMIC CHARGES
----------------------
   0 C :   -0.193150
   1 C :   -0.224565
   2 O :    0.331721
   3 C :   -0.387748
   4 C :   -0.172718
   5 P :    0.655985
   6 C :   -0.387665
   7 C :   -0.172694
   8 C :   -0.193333
   9 C :   -0.224423
  10 O :    0.331681
  11 C :   -0.387671
  12 C :   -0.172636
  13 C :   -0.193265
  14 C :   -0.224485
  15 O :    0.331737
  16 H :    0.144417
  17 H :    0.136101
  18 H :    0.147217
  19 H :    0.147218
  20 H :    0.144411
  21 H :    0.136127
  22 H :    0.147227
  23 H :    0.144406
  24 H :    0.136105

  Mayer bond orders larger than 0.100000
B(  0-C ,  1-C ) :   1.6713 B(  0-C ,  4-C ) :   1.2782 B(  0-C , 16-H ) :   0.9497
B(  1-C ,  2-O ) :   1.1308 B(  1-C , 17-H ) :   0.9538 B(  2-O ,  3-C ) :   1.0391
B(  3-C ,  4-C ) :   1.5936 B(  3-C ,  5-P ) :   0.9849 B(  4-C , 18-H ) :   0.9323
B(  5-P ,  6-C ) :   0.9813 B(  5-P , 11-C ) :   0.9811 B(  6-C ,  7-C ) :   1.5955
B(  6-C , 10-O ) :   1.0390 B(  7-C ,  8-C ) :   1.2800 B(  7-C , 19-H ) :   0.9319
B(  8-C ,  9-C ) :   1.6717 B(  8-C , 20-H ) :   0.9491 B(  9-C , 10-O ) :   1.1312
B(  9-C , 21-H ) :   0.9536 B( 11-C , 12-C ) :   1.5954 B( 11-C , 15-O ) :   1.0392
B( 12-C , 13-C ) :   1.2790 B( 12-C , 22-H ) :   0.9322 B( 13-C , 14-C ) :   1.6717
B( 13-C , 23-H ) :   0.9494 B( 14-C , 15-O ) :   1.1310 B( 14-C , 24-H ) :   0.9537

Dispersion correction           -0.001211933
FINAL SINGLE POINT ENERGY     -1029.620031065126

DIPOLE MOMENT
-------------

Method             : SCF
Type of density    : Electron Density
Multiplicity       :   1
Irrep              :   0
Energy             : -1029.6188191322207786 Eh
Relativity type    :
Basis              : AO
                                X                 Y                 Z
Electronic contribution:     -0.499600675       0.220003821      -1.269555012
Nuclear contribution   :      0.573323106      -0.252011244       1.457108082
                        -----------------------------------------
Total Dipole Moment    :      0.073722431      -0.032007423       0.187553071
                        -----------------------------------------
Magnitude (a.u.)       :      0.204048098
Magnitude (Debye)      :      0.518649048

Rotational constants in cm-1:             0.016892             0.016881             0.010775
Rotational constants in MHz :           506.404547           506.085954           323.029793

                             ****ORCA TERMINATED NORMALLY****
TOTAL RUN TIME: 0 days 0 hours 1 minutes 3 seconds 759 msec
