                         Program Version 6.0.0  -   RELEASE   -
|  1> ! RIJCOSX M062X def2-TZVP D3ZERO NormalSCF
|  2> %pal
|  3> nprocs 6
|  4> end
|  5>
|  6> * xyz 0 1
|  7>   C          -3.15510360728847     -3.00739784247355     -1.30230800710728
|  8>   C          -2.40568037993976     -3.56914048085475     -0.25419429440732
|  9>   C          -1.52450586447554     -2.76572548394425      0.48639148136380
| 10>   C          -1.36059915814612     -1.39682242850792      0.17695139584226
| 11>   C          -2.12215990166175     -0.84195144691940     -0.87375003776740
| 12>   C          -3.01455916209555     -1.64239982328373     -1.60572099353474
| 13>   P          -0.16545104087987     -0.43949362531127      1.23548478058563
| 14>   C          -0.67813334101304      1.28916106664140      0.81536538137892
| 15>   C          -1.65591430607608      1.88892693874687      1.63554950539258
| 16>   C          -2.11776603270112      3.18587794886712      1.36257983513012
| 17>   C          -1.59726855291071      3.90475528833060      0.27299921920188
| 18>   C          -0.61647330022771      3.31740679128731     -0.54392790349967
| 19>   C          -0.16137470897714      2.01575294178146     -0.27732951783991
| 20>   C           1.38370278173850     -0.61962974866679      0.21563762893590
| 21>   C           1.40902960425405     -1.44414120001216     -0.93033503248328
| 22>   C           2.58763572696736     -1.64397050221523     -1.66487177428240
| 23>   C           3.78450474436053     -1.02384113794516     -1.27084748784273
| 24>   C           3.78811004890303     -0.20646054715751     -0.13512098824173
| 25>   C           2.60689916810699      0.00129652822761      0.61083740340340
| 26>   C           2.64540375886327      0.86385414349979      1.82101478768895
| 27>   O           1.67533751608341      1.13974791635990      2.51485053646214
| 28>   O           3.88836979462547      1.33311169885714      2.11688214544564
| 29>   H          -3.85483417066213     -3.63267994366411     -1.87808737744784
| 30>   H          -2.51687429454309     -4.63592027634452     -0.00495821918027
| 31>   H          -0.94878815067989     -3.20190606131401      1.31940296659777
| 32>   H          -2.01284904678968      0.22464733649774     -1.12084230931116
| 33>   H          -3.60427798163834     -1.19606924212706     -2.42173082925983
| 34>   H          -2.05287155996188      1.33172025188189      2.49900122624514
| 35>   H          -2.88256155932988      3.64202808929611      2.01019169643533
| 36>   H          -1.95418319779668      4.92463512995136      0.06211386165398
| 37>   H          -0.20445771930823      3.87516640002861     -1.39950198980057
| 38>   H           0.60139016673161      1.55868795643696     -0.92590054678122
| 39>   H           0.48189604917018     -1.93320843942459     -1.26003642889678
| 40>   H           2.56521964078366     -2.28707585816826     -2.55840766442974
| 41>   H           4.70987558293709     -1.17593469861273     -1.84636062936509
| 42>   H           4.71165468306563      0.28812691677003      0.19514236653011
| 43>   H           3.76765677051187      1.87886444348510      2.92383281318540
| 44> **                         ****END OF INPUT****

CARTESIAN COORDINATES (ANGSTROEM)
---------------------------------
  C     -3.155104   -3.007398   -1.302308
  C     -2.405680   -3.569140   -0.254194
  C     -1.524506   -2.765725    0.486391
  C     -1.360599   -1.396822    0.176951
  C     -2.122160   -0.841951   -0.873750
  C     -3.014559   -1.642400   -1.605721
  P     -0.165451   -0.439494    1.235485
  C     -0.678133    1.289161    0.815365
  C     -1.655914    1.888927    1.635550
  C     -2.117766    3.185878    1.362580
  C     -1.597269    3.904755    0.272999
  C     -0.616473    3.317407   -0.543928
  C     -0.161375    2.015753   -0.277330
  C      1.383703   -0.619630    0.215638
  C      1.409030   -1.444141   -0.930335
  C      2.587636   -1.643971   -1.664872
  C      3.784505   -1.023841   -1.270847
  C      3.788110   -0.206461   -0.135121
  C      2.606899    0.001297    0.610837
  C      2.645404    0.863854    1.821015
  O      1.675338    1.139748    2.514851
  O      3.888370    1.333112    2.116882
  H     -3.854834   -3.632680   -1.878087
  H     -2.516874   -4.635920   -0.004958
  H     -0.948788   -3.201906    1.319403
  H     -2.012849    0.224647   -1.120842
  H     -3.604278   -1.196069   -2.421731
  H     -2.052872    1.331720    2.499001
  H     -2.882562    3.642028    2.010192
  H     -1.954183    4.924635    0.062114
  H     -0.204458    3.875166   -1.399502
  H      0.601390    1.558688   -0.925901
  H      0.481896   -1.933208   -1.260036
  H      2.565220   -2.287076   -2.558408
  H      4.709876   -1.175935   -1.846361
  H      4.711655    0.288127    0.195142
  H      3.767657    1.878864    2.923833

 Total Charge           Charge          ....    0
 Multiplicity           Mult            ....    1
 Number of Electrons    NEL             ....  160
 Basis Dimension        Dim             ....  778

ORBITAL ENERGIES
----------------

  NO   OCC          E(Eh)            E(eV)
   0   2.0000     -78.031389     -2123.3420
   1   2.0000     -19.679437      -535.5047
   2   2.0000     -19.625151      -534.0275
   3   2.0000     -10.686747      -290.8012
   4   2.0000     -10.574190      -287.7383
   5   2.0000     -10.572131      -287.6823
   6   2.0000     -10.565252      -287.4951
   7   2.0000     -10.564283      -287.4688
   8   2.0000     -10.560315      -287.3608
   9   2.0000     -10.557598      -287.2868
  10   2.0000     -10.551162      -287.1117
  11   2.0000     -10.551039      -287.1084
  12   2.0000     -10.550617      -287.0969
  13   2.0000     -10.550045      -287.0813
  14   2.0000     -10.549594      -287.0690
  15   2.0000     -10.549270      -287.0602
  16   2.0000     -10.547965      -287.0247
  17   2.0000     -10.547703      -287.0176
  18   2.0000     -10.547168      -287.0030
  19   2.0000     -10.546682      -286.9898
  20   2.0000     -10.546499      -286.9848
  21   2.0000     -10.545992      -286.9710
  22   2.0000      -6.846698      -186.3081
  23   2.0000      -4.961272      -135.0031
  24   2.0000      -4.960820      -134.9908
  25   2.0000      -4.960542      -134.9832
  26   2.0000      -1.235825       -33.6285
  27   2.0000      -1.139775       -31.0148
  28   2.0000      -0.972189       -26.4546
  29   2.0000      -0.955802       -26.0087
  30   2.0000      -0.950468       -25.8636
  31   2.0000      -0.873427       -23.7672
  32   2.0000      -0.867300       -23.6004
  33   2.0000      -0.842538       -22.9266
  34   2.0000      -0.839606       -22.8468
  35   2.0000      -0.836346       -22.7581
  36   2.0000      -0.832166       -22.6444
  37   2.0000      -0.758136       -20.6299
  38   2.0000      -0.725707       -19.7475
  39   2.0000      -0.697719       -18.9859
  40   2.0000      -0.685856       -18.6631
  41   2.0000      -0.682540       -18.5729
  42   2.0000      -0.672819       -18.3083
  43   2.0000      -0.666758       -18.1434
  44   2.0000      -0.634147       -17.2560
  45   2.0000      -0.605870       -16.4866
  46   2.0000      -0.588390       -16.0109
  47   2.0000      -0.583890       -15.8885
  48   2.0000      -0.570027       -15.5112
  49   2.0000      -0.550783       -14.9876
  50   2.0000      -0.540548       -14.7091
  51   2.0000      -0.530503       -14.4357
  52   2.0000      -0.521821       -14.1995
  53   2.0000      -0.517827       -14.0908
  54   2.0000      -0.514798       -14.0084
  55   2.0000      -0.512683       -13.9508
  56   2.0000      -0.509142       -13.8545
  57   2.0000      -0.485536       -13.2121
  58   2.0000      -0.483651       -13.1608
  59   2.0000      -0.482252       -13.1227
  60   2.0000      -0.476278       -12.9602
  61   2.0000      -0.465683       -12.6719
  62   2.0000      -0.446941       -12.1619
  63   2.0000      -0.438108       -11.9215
  64   2.0000      -0.434248       -11.8165
  65   2.0000      -0.430469       -11.7137
  66   2.0000      -0.420388       -11.4393
  67   2.0000      -0.404173       -10.9981
  68   2.0000      -0.401623       -10.9287
  69   2.0000      -0.400478       -10.8976
  70   2.0000      -0.384402       -10.4601
  71   2.0000      -0.382493       -10.4082
  72   2.0000      -0.360345        -9.8055
  73   2.0000      -0.332684        -9.0528
  74   2.0000      -0.323713        -8.8087
  75   2.0000      -0.312620        -8.5068
  76   2.0000      -0.310473        -8.4484
  77   2.0000      -0.305245        -8.3061
  78   2.0000      -0.303316        -8.2536
  79   2.0000      -0.266097        -7.2409
  80   0.0000      -0.035294        -0.9604
  81   0.0000      -0.002599        -0.0707
  82   0.0000       0.003810         0.1037
  83   0.0000       0.012651         0.3443
  84   0.0000       0.017071         0.4645

MULLIKEN ATOMIC CHARGES
-----------------------
   0 C :   -0.135773
   1 C :   -0.143663
   2 C :   -0.147062
   3 C :   -0.106671
   4 C :   -0.128699
   5 C :   -0.160977
   6 P :    0.143413
   7 C :   -0.057666
   8 C :   -0.122361
   9 C :   -0.151339
  10 C :   -0.138262
  11 C :   -0.145237
  12 C :   -0.188884
  13 C :   -0.125478
  14 C :   -0.086199
  15 C :   -0.166526
  16 C :   -0.127520
  17 C :   -0.168706
  18 C :   -0.021005
  19 C :    0.401113
  20 O :   -0.348931
  21 O :   -0.426207
  22 H :    0.145573
  23 H :    0.145366
  24 H :    0.156593
  25 H :    0.187679
  26 H :    0.145421
  27 H :    0.152738
  28 H :    0.143677
  29 H :    0.143970
  30 H :    0.144158
  31 H :    0.185180
  32 H :    0.182962
  33 H :    0.151889
  34 H :    0.150611
  35 H :    0.172857
  36 H :    0.343967
Sum of atomic charges:   -0.0000000

LOEWDIN ATOMIC CHARGES
----------------------
   0 C :   -0.141956
   1 C :   -0.146173
   2 C :   -0.148955
   3 C :   -0.278608
   4 C :   -0.135807
   5 C :   -0.143342
   6 P :    0.715578
   7 C :   -0.267364
   8 C :   -0.134614
   9 C :   -0.141430
  10 C :   -0.143220
  11 C :   -0.145771
  12 C :   -0.144596
  13 C :   -0.208156
  14 C :   -0.130716
  15 C :   -0.123021
  16 C :   -0.138511
  17 C :   -0.087934
  18 C :   -0.130196
  19 C :   -0.433124
  20 O :    0.101673
  21 O :    0.076313
  22 H :    0.146796
  23 H :    0.147402
  24 H :    0.149996
  25 H :    0.158050
  26 H :    0.147597
  27 H :    0.151266
  28 H :    0.147433
  29 H :    0.146338
  30 H :    0.146892
  31 H :    0.155352
  32 H :    0.162820
  33 H :    0.150960
  34 H :    0.149662
  35 H :    0.159576
  36 H :    0.209788

  Mayer bond orders larger than 0.100000
B(  0-C ,  1-C ) :   1.4306 B(  0-C ,  5-C ) :   1.4332 B(  0-C , 22-H ) :   0.9476
B(  1-C ,  2-C ) :   1.4503 B(  1-C , 23-H ) :   0.9484 B(  2-C ,  3-C ) :   1.3976
B(  2-C , 24-H ) :   0.9361 B(  3-C ,  4-C ) :   1.3563 B(  3-C ,  6-P ) :   0.8953
B(  4-C ,  5-C ) :   1.4659 B(  4-C , 25-H ) :   0.9205 B(  5-C , 26-H ) :   0.9449
B(  6-P ,  7-C ) :   0.9251 B(  6-P , 13-C ) :   0.9911 B(  7-C ,  8-C ) :   1.4338
B(  7-C , 12-C ) :   1.3062 B(  8-C ,  9-C ) :   1.4577 B(  8-C , 27-H ) :   0.9280
B(  9-C , 10-C ) :   1.4317 B(  9-C , 28-H ) :   0.9476 B( 10-C , 11-C ) :   1.4389
B( 10-C , 29-H ) :   0.9470 B( 11-C , 12-C ) :   1.4624 B( 11-C , 30-H ) :   0.9447
B( 12-C , 31-H ) :   0.9372 B( 13-C , 14-C ) :   1.3523 B( 13-C , 18-C ) :   1.3237
B( 14-C , 15-C ) :   1.4545 B( 14-C , 32-H ) :   0.9268 B( 15-C , 16-C ) :   1.4214
B( 15-C , 33-H ) :   0.9417 B( 16-C , 17-C ) :   1.4472 B( 16-C , 34-H ) :   0.9489
B( 17-C , 18-C ) :   1.4217 B( 17-C , 35-H ) :   0.9190 B( 18-C , 19-C ) :   1.0146
B( 19-C , 20-O ) :   1.9276 B( 19-C , 21-O ) :   1.1899 B( 21-O , 36-H ) :   0.8560

Dispersion correction           -0.002570270
FINAL SINGLE POINT ENERGY     -1224.831830384372

DIPOLE MOMENT
-------------

Method             : SCF
Type of density    : Electron Density
Multiplicity       :   1
Irrep              :   0
Energy             : -1224.8292601146290508 Eh
Relativity type    :
Basis              : AO
                                X                 Y                 Z
Electronic contribution:      5.511659211       0.098697336       8.267254073
Nuclear contribution   :     -5.103465321      -0.115396894      -9.066650786
                        -----------------------------------------
Total Dipole Moment    :      0.408193890      -0.016699558      -0.799396714
                        -----------------------------------------
Magnitude (a.u.)       :      0.897739513
Magnitude (Debye)      :      2.281872498

Rotational constants in cm-1:             0.010704             0.008303             0.005736
Rotational constants in MHz :           320.886549           248.928377           171.970830

                             ****ORCA TERMINATED NORMALLY****
TOTAL RUN TIME: 0 days 0 hours 2 minutes 42 seconds 526 msec
