                         Program Version 6.0.0  -   RELEASE   -
|  1> ! RI BP86 def2-SVP D3BJ TIGHTSCF Opt
|  2> %pal
|  3> nprocs 6
|  4> end
|  5>
|  6> * xyz 0 1
|  7> C      5.190295   -1.759299    0.837978
|  8> C      4.194894   -2.526958    1.436820
|  9> C      2.948456   -1.962223    1.712470
| 10> C      2.677631   -0.626698    1.377435
| 11> C      3.695469    0.140675    0.799360
| 12> C      4.941932   -0.425312    0.523891
| 13> C      1.331013   -0.028287    1.700814
| 14> P      0.561082    1.105574    0.529341
| 15> O      1.340789    2.389130    0.381555
| 16> C      0.360190    0.239743   -1.030041
| 17> C     -0.398765   -1.062950   -1.045239
| 18> C      0.268040   -2.278628   -0.849047
| 19> C     -0.439179   -3.481708   -0.831063
| 20> C     -1.819430   -3.482673   -1.017700
| 21> C     -2.491002   -2.281617   -1.233079
| 22> C     -1.783823   -1.078514   -1.251065
| 23> C     -1.077764    1.380602    1.228859
| 24> C     -2.097351    2.166185    0.441872
| 25> C     -3.445680    1.777706    0.459673
| 26> C     -4.405325    2.503317   -0.248202
| 27> C     -4.031537    3.634560   -0.968831
| 28> C     -2.700538    4.044770   -0.973487
| 29> C     -1.739768    3.319743   -0.265566
| 30> H      6.162527   -2.195867    0.625614
| 31> H      4.391028   -3.564360    1.694876
| 32> H      2.187558   -2.576973    2.189045
| 33> H      3.537941    1.191267    0.561449
| 34> H      5.721659    0.181412    0.070113
| 35> H      0.614005   -0.840197    1.871832
| 36> H      1.425820    0.499066    2.658044
| 37> H     -0.118795    0.928411   -1.737346
| 38> H      1.359471    0.063787   -1.447711
| 39> H      1.348668   -2.302929   -0.725142
| 40> H      0.089927   -4.419418   -0.681221
| 41> H     -2.369253   -4.420129   -1.009976
| 42> H     -3.565564   -2.281359   -1.397450
| 43> H     -2.324536   -0.154509   -1.444826
| 44> H     -0.945159    1.885841    2.193497
| 45> H     -1.492538    0.391915    1.459087
| 46> H     -3.760424    0.901998    1.023658
| 47> H     -5.445662    2.189130   -0.232399
| 48> H     -4.777489    4.202966   -1.517828
| 49> H     -2.407513    4.936172   -1.522619
| 50> H     -0.711298    3.676640   -0.271115
| 51> **                         ****END OF INPUT****
 Total Charge           Charge          ....    0
 Multiplicity           Mult            ....    1
 Number of Electrons    NEL             ....  170
Dispersion correction           -0.103891420
FINAL SINGLE POINT ENERGY     -1228.875824610236
Dispersion correction             ... done (  0.1 sec)
Dispersion correction           -0.105401052
FINAL SINGLE POINT ENERGY     -1228.885925358886
Dispersion correction             ... done (  0.1 sec)
Dispersion correction           -0.105833794
FINAL SINGLE POINT ENERGY     -1228.888251584002
Dispersion correction             ... done (  0.1 sec)
FINAL SINGLE POINT ENERGY     -1228.888718507698
FINAL SINGLE POINT ENERGY     -1228.888642021250
FINAL SINGLE POINT ENERGY     -1228.889127393164
FINAL SINGLE POINT ENERGY     -1228.889054983287
FINAL SINGLE POINT ENERGY     -1228.889217135390
Dispersion correction             ... done (  0.1 sec)
Dispersion correction           -0.105585742
FINAL SINGLE POINT ENERGY     -1228.889227588043
Dispersion correction             ... done (  0.1 sec)
Dispersion correction           -0.105577109
FINAL SINGLE POINT ENERGY     -1228.889236725863
Dispersion correction             ... done (  0.1 sec)
                    ***********************HURRAY********************

CARTESIAN COORDINATES (ANGSTROEM)
---------------------------------
  C      5.176239   -1.597623    0.570979
  C      4.204586   -2.497192    1.040188
  C      2.943944   -2.025214    1.439331
  C      2.634896   -0.649691    1.380190
  C      3.620623    0.249257    0.914398
  C      4.878531   -0.225773    0.510732
  C      1.269552   -0.158908    1.808884
  P      0.511553    1.070419    0.649177
  O      1.301033    2.368421    0.543740
  C      0.321273    0.222242   -0.990557
  C     -0.431336   -1.080549   -0.949991
  C      0.247107   -2.298000   -0.725380
  C     -0.460118   -3.505791   -0.621097
  C     -1.859835   -3.519338   -0.745122
  C     -2.543474   -2.316343   -0.990164
  C     -1.835275   -1.108935   -1.093985
  C     -1.192988    1.306030    1.335595
  C     -2.097990    2.139526    0.455759
  C     -3.420770    1.720832    0.198624
  C     -4.269261    2.481121   -0.622105
  C     -3.804363    3.673015   -1.202181
  C     -2.489620    4.099648   -0.949601
  C     -1.641039    3.344001   -0.125235
  H      6.164114   -1.965615    0.254069
  H      4.427606   -3.573953    1.095101
  H      2.182962   -2.733612    1.803682
  H      3.374543    1.320637    0.851980
  H      5.634123    0.486171    0.144073
  H      0.568518   -1.006873    1.947096
  H      1.327733    0.389291    2.775391
  H     -0.173479    0.977497   -1.634853
  H      1.360842    0.097900   -1.356662
  H      1.343721   -2.293904   -0.634005
  H      0.088463   -4.444677   -0.448060
  H     -2.414990   -4.466303   -0.663610
  H     -3.638179   -2.317250   -1.108524
  H     -2.375425   -0.171377   -1.294737
  H     -1.016014    1.806739    2.313322
  H     -1.642842    0.314409    1.545633
  H     -3.788302    0.785943    0.650914
  H     -5.298914    2.139238   -0.809442
  H     -4.466653    4.268943   -1.848684
  H     -2.117297    5.032759   -1.400034
  H     -0.603798    3.662883    0.061498

 Multiplicity           Mult            ....    1
 Number of Electrons    NEL             ....  170
 Basis Dimension        Dim             ....  431

ORBITAL ENERGIES
----------------

  NO   OCC          E(Eh)            E(eV)
   0   2.0000     -76.417478     -2079.4253
   1   2.0000     -18.721563      -509.4396
   2   2.0000      -9.936839      -270.3951
   3   2.0000      -9.934832      -270.3405
   4   2.0000      -9.934478      -270.3309
   5   2.0000      -9.933892      -270.3149
   6   2.0000      -9.933797      -270.3124
   7   2.0000      -9.930284      -270.2168
   8   2.0000      -9.925879      -270.0969
   9   2.0000      -9.925844      -270.0959
  10   2.0000      -9.924732      -270.0657
  11   2.0000      -9.923502      -270.0322
  12   2.0000      -9.923280      -270.0262
  13   2.0000      -9.923135      -270.0222
  14   2.0000      -9.922934      -270.0168
  15   2.0000      -9.922731      -270.0112
  16   2.0000      -9.922644      -270.0089
  17   2.0000      -9.921127      -269.9676
  18   2.0000      -9.920857      -269.9603
  19   2.0000      -9.920533      -269.9514
  20   2.0000      -9.920180      -269.9418
  21   2.0000      -9.914925      -269.7988
  22   2.0000      -9.914512      -269.7876
  23   2.0000      -6.376685      -173.5184
  24   2.0000      -4.597914      -125.1156
  25   2.0000      -4.597852      -125.1139
  26   2.0000      -4.597583      -125.1066
  27   2.0000      -0.855234       -23.2721
  28   2.0000      -0.781113       -21.2552
  29   2.0000      -0.776463       -21.1286
  30   2.0000      -0.775720       -21.1084
  31   2.0000      -0.719585       -19.5809
  32   2.0000      -0.701783       -19.0965
  33   2.0000      -0.700161       -19.0523
  34   2.0000      -0.673634       -18.3305
  35   2.0000      -0.669384       -18.2149
  36   2.0000      -0.668959       -18.2033
  37   2.0000      -0.647437       -17.6177
  38   2.0000      -0.622799       -16.9472
  39   2.0000      -0.616626       -16.7792
  40   2.0000      -0.548520       -14.9260
  41   2.0000      -0.544803       -14.8248
  42   2.0000      -0.544124       -14.8064
  43   2.0000      -0.539570       -14.6825
  44   2.0000      -0.530535       -14.4366
  45   2.0000      -0.522140       -14.2082
  46   2.0000      -0.486172       -13.2294
  47   2.0000      -0.465677       -12.6717
  48   2.0000      -0.458842       -12.4857
  49   2.0000      -0.456393       -12.4191
  50   2.0000      -0.428576       -11.6621
  51   2.0000      -0.426082       -11.5943
  52   2.0000      -0.419975       -11.4281
  53   2.0000      -0.411845       -11.2069
  54   2.0000      -0.410152       -11.1608
  55   2.0000      -0.403708       -10.9854
  56   2.0000      -0.393227       -10.7003
  57   2.0000      -0.388547       -10.5729
  58   2.0000      -0.380421       -10.3518
  59   2.0000      -0.378374       -10.2961
  60   2.0000      -0.374746       -10.1973
  61   2.0000      -0.374053       -10.1785
  62   2.0000      -0.372735       -10.1426
  63   2.0000      -0.364390        -9.9156
  64   2.0000      -0.359206        -9.7745
  65   2.0000      -0.354224        -9.6389
  66   2.0000      -0.340644        -9.2694
  67   2.0000      -0.330938        -9.0053
  68   2.0000      -0.321996        -8.7620
  69   2.0000      -0.319777        -8.7016
  70   2.0000      -0.316233        -8.6051
  71   2.0000      -0.310858        -8.4589
  72   2.0000      -0.307109        -8.3569
  73   2.0000      -0.304106        -8.2751
  74   2.0000      -0.303908        -8.2698
  75   2.0000      -0.302764        -8.2386
  76   2.0000      -0.301131        -8.1942
  77   2.0000      -0.241366        -6.5679
  78   2.0000      -0.238310        -6.4847
  79   2.0000      -0.232963        -6.3392
  80   2.0000      -0.232335        -6.3222
  81   2.0000      -0.232073        -6.3150
  82   2.0000      -0.228655        -6.2220
  83   2.0000      -0.213157        -5.8003
  84   2.0000      -0.209405        -5.6982
  85   0.0000      -0.054204        -1.4750
  86   0.0000      -0.052801        -1.4368
  87   0.0000      -0.051604        -1.4042
  88   0.0000      -0.045781        -1.2458
  89   0.0000      -0.042568        -1.1583

MULLIKEN ATOMIC CHARGES
-----------------------
   0 C :    0.004017
   1 C :   -0.006225
   2 C :   -0.029458
   3 C :   -0.060059
   4 C :   -0.005658
   5 C :   -0.002001
   6 C :   -0.035298
   7 P :    0.399899
   8 O :   -0.454913
   9 C :   -0.050336
  10 C :   -0.031551
  11 C :   -0.030798
  12 C :   -0.002208
  13 C :    0.002163
  14 C :   -0.002007
  15 C :   -0.030449
  16 C :   -0.033255
  17 C :   -0.061953
  18 C :   -0.028161
  19 C :   -0.006572
  20 C :    0.003980
  21 C :   -0.001647
  22 C :   -0.005750
  23 H :    0.003610
  24 H :    0.001249
  25 H :   -0.008266
  26 H :    0.021879
  27 H :    0.006242
  28 H :    0.048535
  29 H :    0.077260
  30 H :    0.072005
  31 H :    0.071356
  32 H :    0.008968
  33 H :    0.002485
  34 H :    0.004107
  35 H :    0.002245
  36 H :    0.006429
  37 H :    0.077537
  38 H :    0.047041
  39 H :   -0.007894
  40 H :    0.001437
  41 H :    0.003778
  42 H :    0.006401
  43 H :    0.021836
Sum of atomic charges:   -0.0000000

LOEWDIN ATOMIC CHARGES
----------------------
   0 C :   -0.034390
   1 C :   -0.034535
   2 C :   -0.037762
   3 C :   -0.044565
   4 C :   -0.032559
   5 C :   -0.027164
   6 C :   -0.178715
   7 P :    0.885888
   8 O :   -0.494213
   9 C :   -0.177313
  10 C :   -0.044736
  11 C :   -0.033844
  12 C :   -0.031285
  13 C :   -0.035578
  14 C :   -0.031243
  15 C :   -0.034435
  16 C :   -0.178626
  17 C :   -0.044591
  18 C :   -0.038215
  19 C :   -0.034227
  20 C :   -0.034297
  21 C :   -0.026963
  22 C :   -0.032654
  23 H :    0.032386
  24 H :    0.032598
  25 H :    0.029055
  26 H :    0.034675
  27 H :    0.034520
  28 H :    0.038916
  29 H :    0.051966
  30 H :    0.050495
  31 H :    0.050450
  32 H :    0.034225
  33 H :    0.033012
  34 H :    0.032542
  35 H :    0.032959
  36 H :    0.033885
  37 H :    0.052188
  38 H :    0.038618
  39 H :    0.029009
  40 H :    0.032700
  41 H :    0.032465
  42 H :    0.034604
  43 H :    0.034756

  Mayer bond orders larger than 0.100000
B(  0-C ,  1-C ) :   1.3810 B(  0-C ,  5-C ) :   1.3757 B(  0-C , 23-H ) :   0.9772
B(  1-C ,  2-C ) :   1.3741 B(  1-C , 24-H ) :   0.9747 B(  2-C ,  3-C ) :   1.3836
B(  2-C , 25-H ) :   0.9726 B(  3-C ,  4-C ) :   1.3808 B(  3-C ,  6-C ) :   1.0465
B(  4-C ,  5-C ) :   1.3713 B(  4-C , 26-H ) :   0.9567 B(  5-C , 27-H ) :   0.9755
B(  6-C ,  7-P ) :   0.9162 B(  6-C , 28-H ) :   0.9001 B(  6-C , 29-H ) :   0.8972
B(  7-P ,  8-O ) :   1.7808 B(  7-P ,  9-C ) :   0.9082 B(  7-P , 16-C ) :   0.9146
B(  9-C , 10-C ) :   1.0060 B(  9-C , 30-H ) :   0.9044 B(  9-C , 31-H ) :   0.9045
B( 10-C , 11-C ) :   1.3764 B( 10-C , 15-C ) :   1.3770 B( 11-C , 12-C ) :   1.3827
B( 11-C , 32-H ) :   0.9685 B( 12-C , 13-C ) :   1.3757 B( 12-C , 33-H ) :   0.9750
B( 13-C , 14-C ) :   1.3761 B( 13-C , 34-H ) :   0.9772 B( 14-C , 15-C ) :   1.3824
B( 14-C , 35-H ) :   0.9751 B( 15-C , 36-H ) :   0.9684 B( 16-C , 17-C ) :   1.0475
B( 16-C , 37-H ) :   0.8967 B( 16-C , 38-H ) :   0.9005 B( 17-C , 18-C ) :   1.3840
B( 17-C , 22-C ) :   1.3798 B( 18-C , 19-C ) :   1.3738 B( 18-C , 39-H ) :   0.9721
B( 19-C , 20-C ) :   1.3816 B( 19-C , 40-H ) :   0.9746 B( 20-C , 21-C ) :   1.3753
B( 20-C , 41-H ) :   0.9772 B( 21-C , 22-C ) :   1.3716 B( 21-C , 42-H ) :   0.9756
B( 22-C , 43-H ) :   0.9569

Dispersion correction           -0.105575198
FINAL SINGLE POINT ENERGY     -1228.889237321104

DIPOLE MOMENT
-------------

Method             : SCF
Type of density    : Electron Density
Multiplicity       :   1
Irrep              :   0
Energy             : -1228.7836621227042997 Eh
Relativity type    :
Basis              : AO
                                X                 Y                 Z
Electronic contribution:      2.345464857       4.304917245       0.876898143
Nuclear contribution   :     -2.997511602      -5.348800769      -0.743119259
                        -----------------------------------------
Total Dipole Moment    :     -0.652046745      -1.043883524       0.133778884
                        -----------------------------------------
Magnitude (a.u.)       :      1.238044651
Magnitude (Debye)      :      3.146859419

Rotational constants in cm-1:             0.012824             0.005604             0.004222
Rotational constants in MHz :           384.451467           167.992624           126.575015

                             ****ORCA TERMINATED NORMALLY****
TOTAL RUN TIME: 0 days 0 hours 4 minutes 8 seconds 436 msec
