                         Program Version 6.0.0  -   RELEASE   -
|  1> ! RIJCOSX M062X def2-TZVP D3ZERO NormalSCF
|  2> %pal
|  3> nprocs 6
|  4> end
|  5>
|  6> * xyz 0 1
|  7>   C           2.56754840039165      0.21494075794150      0.93572351975023
|  8>   C           1.68340554951116      0.48886975949881     -0.28582989930104
|  9>   P          -0.08933917590612      0.09624859871035      0.06358622043490
| 10>   O          -0.56564485306908      0.61293205097754      1.41293640039653
| 11>   C          -0.22765638488837     -1.73977693808398     -0.10579337317083
| 12>   C          -1.57187472750013     -2.25085124497012      0.42432711564811
| 13>   C          -1.03753904249725      0.79361503127659     -1.36203368450323
| 14>   C          -1.24058039052870      2.30543887519242     -1.21330062800751
| 15>   H           2.14879765163942      0.72432864210024      1.82603236829654
| 16>   H           3.60326266333855      0.57493194954567      0.77289369175166
| 17>   H           2.62272679115444     -0.86845923906602      1.16799763014579
| 18>   H           1.71431445275987      1.56651693440851     -0.55409143084716
| 19>   H           2.01082584555461     -0.07818665774481     -1.18434233937620
| 20>   H           0.61061824668898     -2.16832987820178      0.48410537174217
| 21>   H          -0.05341186664097     -2.02179782770722     -1.16705990067252
| 22>   H          -2.41872375123938     -1.90899113028730     -0.20550650580175
| 23>   H          -1.74363753457293     -1.86601768157353      1.44895831080683
| 24>   H          -1.60019106027538     -3.35870763896651      0.44997986682570
| 25>   H          -0.52142972406898      0.52413498358211     -2.30920341454559
| 26>   H          -2.01678805799991      0.26888118288909     -1.36659695441672
| 27>   H          -1.67186133104532      2.53202291443229     -0.21825182343459
| 28>   H          -1.92060287311335      2.69981597375545     -1.99487824193306
| 29>   H          -0.28221882769280      2.85843958229071     -1.29413129978826
| 30> **                         ****END OF INPUT****

CARTESIAN COORDINATES (ANGSTROEM)
---------------------------------
  C      2.567548    0.214941    0.935724
  C      1.683406    0.488870   -0.285830
  P     -0.089339    0.096249    0.063586
  O     -0.565645    0.612932    1.412936
  C     -0.227656   -1.739777   -0.105793
  C     -1.571875   -2.250851    0.424327
  C     -1.037539    0.793615   -1.362034
  C     -1.240580    2.305439   -1.213301
  H      2.148798    0.724329    1.826032
  H      3.603263    0.574932    0.772894
  H      2.622727   -0.868459    1.167998
  H      1.714314    1.566517   -0.554091
  H      2.010826   -0.078187   -1.184342
  H      0.610618   -2.168330    0.484105
  H     -0.053412   -2.021798   -1.167060
  H     -2.418724   -1.908991   -0.205507
  H     -1.743638   -1.866018    1.448958
  H     -1.600191   -3.358708    0.449980
  H     -0.521430    0.524135   -2.309203
  H     -2.016788    0.268881   -1.366597
  H     -1.671861    2.532023   -0.218252
  H     -1.920603    2.699816   -1.994878
  H     -0.282219    2.858440   -1.294131

 Total Charge           Charge          ....    0
 Multiplicity           Mult            ....    1
 Number of Electrons    NEL             ....   74
 Basis Dimension        Dim             ....  344

ORBITAL ENERGIES
----------------

  NO   OCC          E(Eh)            E(eV)
   0   2.0000     -78.081768     -2124.7129
   1   2.0000     -19.557005      -532.1731
   2   2.0000     -10.551241      -287.1139
   3   2.0000     -10.551176      -287.1121
   4   2.0000     -10.551159      -287.1116
   5   2.0000     -10.538684      -286.7722
   6   2.0000     -10.538639      -286.7710
   7   2.0000     -10.538579      -286.7693
   8   2.0000      -6.888795      -187.4536
   9   2.0000      -5.005682      -136.2115
  10   2.0000      -5.005678      -136.2114
  11   2.0000      -5.004062      -136.1675
  12   2.0000      -1.051888       -28.6233
  13   2.0000      -0.885462       -24.0946
  14   2.0000      -0.857650       -23.3378
  15   2.0000      -0.857603       -23.3366
  16   2.0000      -0.748697       -20.3731
  17   2.0000      -0.704432       -19.1686
  18   2.0000      -0.704308       -19.1652
  19   2.0000      -0.595846       -16.2138
  20   2.0000      -0.532891       -14.5007
  21   2.0000      -0.532783       -14.4978
  22   2.0000      -0.520593       -14.1661
  23   2.0000      -0.509508       -13.8644
  24   2.0000      -0.509383       -13.8610
  25   2.0000      -0.465675       -12.6717
  26   2.0000      -0.452834       -12.3223
  27   2.0000      -0.441842       -12.0231
  28   2.0000      -0.441746       -12.0205
  29   2.0000      -0.427767       -11.6401
  30   2.0000      -0.417183       -11.3521
  31   2.0000      -0.417130       -11.3507
  32   2.0000      -0.402340       -10.9482
  33   2.0000      -0.392703       -10.6860
  34   2.0000      -0.392635       -10.6841
  35   2.0000      -0.321254        -8.7418
  36   2.0000      -0.321232        -8.7412
  37   0.0000       0.048193         1.3114
  38   0.0000       0.072010         1.9595
  39   0.0000       0.072085         1.9615
  40   0.0000       0.086489         2.3535
  41   0.0000       0.102994         2.8026

MULLIKEN ATOMIC CHARGES
-----------------------
   0 C :   -0.429623
   1 C :   -0.355913
   2 P :    0.648753
   3 O :   -0.612303
   4 C :   -0.358212
   5 C :   -0.428826
   6 C :   -0.356501
   7 C :   -0.430484
   8 H :    0.180639
   9 H :    0.145876
  10 H :    0.135377
  11 H :    0.155575
  12 H :    0.156686
  13 H :    0.155650
  14 H :    0.157025
  15 H :    0.135350
  16 H :    0.180457
  17 H :    0.145578
  18 H :    0.156665
  19 H :    0.156017
  20 H :    0.180747
  21 H :    0.145990
  22 H :    0.135478
Sum of atomic charges:    0.0000000

LOEWDIN ATOMIC CHARGES
----------------------
   0 C :   -0.338593
   1 C :   -0.399251
   2 P :    0.568108
   3 O :   -0.330001
   4 C :   -0.399401
   5 C :   -0.338540
   6 C :   -0.399460
   7 C :   -0.338609
   8 H :    0.135599
   9 H :    0.123168
  10 H :    0.121014
  11 H :    0.141611
  12 H :    0.137168
  13 H :    0.141589
  14 H :    0.137154
  15 H :    0.121015
  16 H :    0.135594
  17 H :    0.123129
  18 H :    0.137132
  19 H :    0.141769
  20 H :    0.135624
  21 H :    0.123194
  22 H :    0.120986

  Mayer bond orders larger than 0.100000
B(  0-C ,  1-C ) :   0.9363 B(  0-C ,  8-H ) :   0.9629 B(  0-C ,  9-H ) :   0.9718
B(  0-C , 10-H ) :   0.9704 B(  1-C ,  2-P ) :   0.9165 B(  1-C , 11-H ) :   0.9471
B(  1-C , 12-H ) :   0.9411 B(  2-P ,  3-O ) :   1.9006 B(  2-P ,  4-C ) :   0.9159
B(  2-P ,  6-C ) :   0.9166 B(  4-C ,  5-C ) :   0.9374 B(  4-C , 13-H ) :   0.9472
B(  4-C , 14-H ) :   0.9408 B(  5-C , 15-H ) :   0.9704 B(  5-C , 16-H ) :   0.9630
B(  5-C , 17-H ) :   0.9717 B(  6-C ,  7-C ) :   0.9369 B(  6-C , 18-H ) :   0.9406
B(  6-C , 19-H ) :   0.9467 B(  7-C , 20-H ) :   0.9630 B(  7-C , 21-H ) :   0.9717
B(  7-C , 22-H ) :   0.9705

Dispersion correction           -0.000846970
FINAL SINGLE POINT ENERGY      -654.254450317336

DIPOLE MOMENT
-------------

Method             : SCF
Type of density    : Electron Density
Multiplicity       :   1
Irrep              :   0
Energy             :  -654.2536033473983252 Eh
Relativity type    :
Basis              : AO
                                X                 Y                 Z
Electronic contribution:     -0.927008462       1.002237355       2.599187147
Nuclear contribution   :      1.433042792      -1.550227608      -4.031722284
                        -----------------------------------------
Total Dipole Moment    :      0.506034330      -0.547990252      -1.432535137
                        -----------------------------------------
Magnitude (a.u.)       :      1.615091632
Magnitude (Debye)      :      4.105236679

Rotational constants in cm-1:             0.052198             0.052087             0.033403
Rotational constants in MHz :          1564.846966          1561.520119          1001.400563

                             ****ORCA TERMINATED NORMALLY****
TOTAL RUN TIME: 0 days 0 hours 0 minutes 26 seconds 359 msec
