                         Program Version 6.0.0  -   RELEASE   -
|  1> ! RIJONX B3LYP def2-SVP D3BJ TIGHTSCF Opt
|  2> %pal
|  3> nprocs 6
|  4> end
|  5>
|  6> * xyz 0 1
|  7> C      4.892537   -3.607543   -0.995109
|  8> O      3.976134   -3.931013    0.042970
|  9> C      3.093354   -2.955299    0.413077
| 10> C      2.237990   -3.304647    1.456809
| 11> C      1.285429   -2.397799    1.933079
| 12> C      1.161046   -1.116490    1.371974
| 13> C      2.028661   -0.778122    0.324110
| 14> C      2.984952   -1.687151   -0.152143
| 15> P     -0.108401   -0.003061    2.056364
| 16> C     -1.642613   -0.508507    1.213556
| 17> C     -1.691982   -1.373650    0.111577
| 18> C     -2.911772   -1.721291   -0.487504
| 19> C     -4.109372   -1.210139    0.006361
| 20> C     -4.075218   -0.349894    1.102661
| 21> C     -2.859161   -0.004386    1.701335
| 22> O     -5.359306   -1.466358   -0.483858
| 23> C     -5.446538   -2.366793   -1.580964
| 24> C      0.284673    1.619420    1.326530
| 25> C      1.282319    2.393860    1.940537
| 26> C      1.635722    3.648761    1.433671
| 27> C      1.000279    4.164988    0.305494
| 28> C      0.006452    3.410755   -0.313267
| 29> C     -0.346991    2.151541    0.193783
| 30> O      1.438601    5.398940   -0.086342
| 31> C      0.794787    5.981163   -1.212648
| 32> H      4.367848   -3.398418   -1.933199
| 33> H      5.537325   -2.770687   -0.706855
| 34> H      5.532818   -4.479597   -1.159441
| 35> H      2.312400   -4.291229    1.907719
| 36> H      0.637075   -2.709573    2.750260
| 37> H      1.980330    0.198096   -0.152017
| 38> H      3.626490   -1.366249   -0.966060
| 39> H     -0.784028   -1.795376   -0.312458
| 40> H     -2.883863   -2.394328   -1.337948
| 41> H     -5.002937    0.055767    1.498864
| 42> H     -2.876071    0.669811    2.556041
| 43> H     -6.503962   -2.475838   -1.840588
| 44> H     -5.066210   -3.357483   -1.310683
| 45> H     -4.927460   -1.969385   -2.459405
| 46> H      1.802331    2.027275    2.824026
| 47> H      2.412839    4.227473    1.927010
| 48> H     -0.518368    3.767038   -1.193403
| 49> H     -1.125898    1.599393   -0.326290
| 50> H     -0.272844    6.133770   -1.022781
| 51> H      0.954822    5.379042   -2.113136
| 52> H      1.245783    6.963214   -1.384756
| 53> **                         ****END OF INPUT****
 Total Charge           Charge          ....    0
 Multiplicity           Mult            ....    1
 Number of Electrons    NEL             ....  186
Dispersion correction           -0.105496038
FINAL SINGLE POINT ENERGY     -1378.442356466448
Dispersion correction             ... done (  0.1 sec)
Dispersion correction           -0.106167395
FINAL SINGLE POINT ENERGY     -1378.446631627506
Dispersion correction             ... done (  0.1 sec)
Dispersion correction           -0.106340909
FINAL SINGLE POINT ENERGY     -1378.447893650624
Dispersion correction             ... done (  0.1 sec)
FINAL SINGLE POINT ENERGY     -1378.448029395253
Dispersion correction             ... done (  0.1 sec)
Dispersion correction           -0.106166930
FINAL SINGLE POINT ENERGY     -1378.448057722500
Dispersion correction             ... done (  0.1 sec)
Dispersion correction           -0.106218089
FINAL SINGLE POINT ENERGY     -1378.448068243576
Dispersion correction             ... done (  0.1 sec)
                    ***********************HURRAY********************

CARTESIAN COORDINATES (ANGSTROEM)
---------------------------------
  C      4.762769   -3.546657   -1.112568
  O      3.919518   -3.858601   -0.027992
  C      3.041079   -2.923021    0.411391
  C      2.239398   -3.290260    1.507187
  C      1.318747   -2.391097    2.030488
  C      1.149570   -1.108192    1.472613
  C      1.954958   -0.755223    0.383326
  C      2.896592   -1.644959   -0.147462
  P     -0.118240   -0.002523    2.233249
  C     -1.637005   -0.506976    1.312970
  C     -1.637007   -1.326297    0.177895
  C     -2.826701   -1.669222   -0.475610
  C     -4.051154   -1.181944    0.003896
  C     -4.065877   -0.358989    1.144438
  C     -2.877815   -0.038812    1.789385
  O     -5.257230   -1.451283   -0.555427
  C     -5.312231   -2.280905   -1.692649
  C      0.275682    1.609613    1.424021
  C      1.265033    2.417045    2.020065
  C      1.630691    3.637541    1.466455
  C      0.997663    4.102014    0.299438
  C      0.000269    3.318702   -0.298983
  C     -0.347331    2.084761    0.263854
  O      1.410037    5.307763   -0.165579
  C      0.804453    5.836885   -1.322131
  H      4.187301   -3.322760   -2.029434
  H      5.417562   -2.684863   -0.888691
  H      5.386906   -4.432706   -1.290818
  H      2.370045   -4.286533    1.934672
  H      0.711686   -2.687675    2.891063
  H      1.851195    0.233464   -0.068489
  H      3.506259   -1.329208   -0.994232
  H     -0.691964   -1.708914   -0.212979
  H     -2.782861   -2.313390   -1.353985
  H     -5.028715    0.005422    1.508474
  H     -2.907650    0.591990    2.682828
  H     -6.371919   -2.366499   -1.968600
  H     -4.912553   -3.290159   -1.484566
  H     -4.753606   -1.849573   -2.543421
  H      1.758151    2.075781    2.935160
  H      2.399808    4.263743    1.923276
  H     -0.512208    3.653633   -1.200956
  H     -1.121580    1.484921   -0.218863
  H     -0.281489    5.989501   -1.183987
  H      0.959227    5.185712   -2.201881
  H      1.280539    6.808750   -1.509889

 Multiplicity           Mult            ....    1
 Number of Electrons    NEL             ....  186
 Basis Dimension        Dim             ....  459

ORBITAL ENERGIES
----------------

  NO   OCC          E(Eh)            E(eV)
   0   2.0000     -77.041304     -2096.4005
   1   2.0000     -19.161676      -521.4157
   2   2.0000     -19.161668      -521.4155
   3   2.0000     -19.161577      -521.4130
   4   2.0000     -10.244653      -278.7712
   5   2.0000     -10.244646      -278.7710
   6   2.0000     -10.244529      -278.7678
   7   2.0000     -10.243861      -278.7496
   8   2.0000     -10.243841      -278.7491
   9   2.0000     -10.243786      -278.7476
  10   2.0000     -10.186883      -277.1992
  11   2.0000     -10.186859      -277.1985
  12   2.0000     -10.186796      -277.1968
  13   2.0000     -10.186163      -277.1796
  14   2.0000     -10.186116      -277.1783
  15   2.0000     -10.186040      -277.1762
  16   2.0000     -10.183746      -277.1138
  17   2.0000     -10.183740      -277.1137
  18   2.0000     -10.183649      -277.1112
  19   2.0000     -10.180375      -277.0221
  20   2.0000     -10.180365      -277.0218
  21   2.0000     -10.180305      -277.0202
  22   2.0000     -10.178591      -276.9736
  23   2.0000     -10.178585      -276.9734
  24   2.0000     -10.178510      -276.9713
  25   2.0000      -6.536592      -177.8697
  26   2.0000      -4.702056      -127.9494
  27   2.0000      -4.702052      -127.9493
  28   2.0000      -4.699155      -127.8705
  29   2.0000      -1.057480       -28.7755
  30   2.0000      -1.057468       -28.7752
  31   2.0000      -1.057389       -28.7730
  32   2.0000      -0.845456       -23.0060
  33   2.0000      -0.837876       -22.7998
  34   2.0000      -0.837805       -22.7978
  35   2.0000      -0.763843       -20.7852
  36   2.0000      -0.745959       -20.2986
  37   2.0000      -0.745911       -20.2973
  38   2.0000      -0.735951       -20.0262
  39   2.0000      -0.733970       -19.9723
  40   2.0000      -0.733926       -19.9711
  41   2.0000      -0.701789       -19.0967
  42   2.0000      -0.682327       -18.5671
  43   2.0000      -0.682272       -18.5656
  44   2.0000      -0.620660       -16.8890
  45   2.0000      -0.602857       -16.4046
  46   2.0000      -0.602824       -16.4037
  47   2.0000      -0.599997       -16.3267
  48   2.0000      -0.577288       -15.7088
  49   2.0000      -0.577243       -15.7076
  50   2.0000      -0.548258       -14.9189
  51   2.0000      -0.533475       -14.5166
  52   2.0000      -0.533430       -14.5154
  53   2.0000      -0.528579       -14.3834
  54   2.0000      -0.482615       -13.1326
  55   2.0000      -0.482303       -13.1241
  56   2.0000      -0.482276       -13.1234
  57   2.0000      -0.469755       -12.7827
  58   2.0000      -0.469732       -12.7821
  59   2.0000      -0.469653       -12.7799
  60   2.0000      -0.459231       -12.4963
  61   2.0000      -0.459219       -12.4960
  62   2.0000      -0.440256       -11.9800
  63   2.0000      -0.439042       -11.9469
  64   2.0000      -0.439022       -11.9464
  65   2.0000      -0.421679       -11.4745
  66   2.0000      -0.420304       -11.4370
  67   2.0000      -0.420254       -11.4357
  68   2.0000      -0.415732       -11.3126
  69   2.0000      -0.412607       -11.2276
  70   2.0000      -0.412601       -11.2274
  71   2.0000      -0.402884       -10.9630
  72   2.0000      -0.377317       -10.2673
  73   2.0000      -0.377252       -10.2656
  74   2.0000      -0.375938       -10.2298
  75   2.0000      -0.358206        -9.7473
  76   2.0000      -0.358174        -9.7464
  77   2.0000      -0.358018        -9.7422
  78   2.0000      -0.335184        -9.1208
  79   2.0000      -0.335112        -9.1188
  80   2.0000      -0.325311        -8.8522
  81   2.0000      -0.321347        -8.7443
  82   2.0000      -0.321316        -8.7435
  83   2.0000      -0.319605        -8.6969
  84   2.0000      -0.313846        -8.5402
  85   2.0000      -0.313719        -8.5367
  86   2.0000      -0.256922        -6.9912
  87   2.0000      -0.250930        -6.8281
  88   2.0000      -0.250848        -6.8259
  89   2.0000      -0.248576        -6.7641
  90   2.0000      -0.223222        -6.0742
  91   2.0000      -0.223049        -6.0695
  92   2.0000      -0.195644        -5.3237
  93   0.0000      -0.015824        -0.4306
  94   0.0000      -0.008094        -0.2203
  95   0.0000      -0.007947        -0.2163
  96   0.0000       0.001636         0.0445
  97   0.0000       0.001742         0.0474

MULLIKEN ATOMIC CHARGES
-----------------------
   0 C :    0.184677
   1 O :   -0.310292
   2 C :    0.225681
   3 C :   -0.012766
   4 C :    0.022499
   5 C :   -0.156983
   6 C :    0.014713
   7 C :   -0.076130
   8 P :    0.358807
   9 C :   -0.157017
  10 C :    0.014944
  11 C :   -0.076090
  12 C :    0.225716
  13 C :   -0.012759
  14 C :    0.022048
  15 O :   -0.310305
  16 C :    0.184642
  17 C :   -0.156707
  18 C :    0.022281
  19 C :   -0.012786
  20 C :    0.225664
  21 C :   -0.076197
  22 C :    0.014251
  23 O :   -0.310358
  24 C :    0.184718
  25 H :    0.017449
  26 H :    0.019729
  27 H :    0.032019
  28 H :   -0.023386
  29 H :   -0.016625
  30 H :   -0.004136
  31 H :   -0.035685
  32 H :   -0.004364
  33 H :   -0.035688
  34 H :   -0.023375
  35 H :   -0.016600
  36 H :    0.032015
  37 H :    0.019717
  38 H :    0.017443
  39 H :   -0.016666
  40 H :   -0.023404
  41 H :   -0.035781
  42 H :   -0.003901
  43 H :    0.019633
  44 H :    0.017377
  45 H :    0.031979
Sum of atomic charges:   -0.0000000

LOEWDIN ATOMIC CHARGES
----------------------
   0 C :    0.078896
   1 O :   -0.099507
   2 C :    0.053180
   3 C :   -0.047893
   4 C :   -0.019312
   5 C :   -0.196242
   6 C :   -0.020542
   7 C :   -0.080947
   8 P :    0.508820
   9 C :   -0.196200
  10 C :   -0.020444
  11 C :   -0.080922
  12 C :    0.053171
  13 C :   -0.047931
  14 C :   -0.019407
  15 O :   -0.099501
  16 C :    0.078873
  17 C :   -0.196091
  18 C :   -0.019389
  19 C :   -0.047849
  20 C :    0.053087
  21 C :   -0.080927
  22 C :   -0.020805
  23 O :   -0.099542
  24 C :    0.078840
  25 H :    0.012298
  26 H :    0.013307
  27 H :    0.026420
  28 H :    0.030844
  29 H :    0.025848
  30 H :    0.029351
  31 H :    0.024842
  32 H :    0.029324
  33 H :    0.024846
  34 H :    0.030836
  35 H :    0.025865
  36 H :    0.026425
  37 H :    0.013292
  38 H :    0.012303
  39 H :    0.025846
  40 H :    0.030827
  41 H :    0.024819
  42 H :    0.029350
  43 H :    0.013269
  44 H :    0.012268
  45 H :    0.026408

  Mayer bond orders larger than 0.100000
B(  0-C ,  1-O ) :   0.9722 B(  0-C , 25-H ) :   0.9646 B(  0-C , 26-H ) :   0.9646
B(  0-C , 27-H ) :   0.9766 B(  1-O ,  2-C ) :   1.1293 B(  2-C ,  3-C ) :   1.3402
B(  2-C ,  7-C ) :   1.3090 B(  3-C ,  4-C ) :   1.4155 B(  3-C , 28-H ) :   0.9901
B(  4-C ,  5-C ) :   1.3338 B(  4-C , 29-H ) :   0.9814 B(  5-C ,  6-C ) :   1.3953
B(  5-C ,  8-P ) :   0.9280 B(  6-C ,  7-C ) :   1.3479 B(  6-C , 30-H ) :   0.9764
B(  7-C , 31-H ) :   0.9892 B(  8-P ,  9-C ) :   0.9279 B(  8-P , 17-C ) :   0.9273
B(  9-C , 10-C ) :   1.3955 B(  9-C , 14-C ) :   1.3337 B( 10-C , 11-C ) :   1.3480
B( 10-C , 32-H ) :   0.9764 B( 11-C , 12-C ) :   1.3091 B( 11-C , 33-H ) :   0.9891
B( 12-C , 13-C ) :   1.3401 B( 12-C , 15-O ) :   1.1292 B( 13-C , 14-C ) :   1.4155
B( 13-C , 34-H ) :   0.9900 B( 14-C , 35-H ) :   0.9815 B( 15-O , 16-C ) :   0.9722
B( 16-C , 36-H ) :   0.9766 B( 16-C , 37-H ) :   0.9646 B( 16-C , 38-H ) :   0.9646
B( 17-C , 18-C ) :   1.3333 B( 17-C , 22-C ) :   1.3964 B( 18-C , 19-C ) :   1.4161
B( 18-C , 39-H ) :   0.9814 B( 19-C , 20-C ) :   1.3399 B( 19-C , 40-H ) :   0.9900
B( 20-C , 21-C ) :   1.3096 B( 20-C , 23-O ) :   1.1290 B( 21-C , 22-C ) :   1.3476
B( 21-C , 41-H ) :   0.9891 B( 22-C , 42-H ) :   0.9762 B( 23-O , 24-C ) :   0.9723
B( 24-C , 43-H ) :   0.9646 B( 24-C , 44-H ) :   0.9646 B( 24-C , 45-H ) :   0.9766

Dispersion correction           -0.106230809
FINAL SINGLE POINT ENERGY     -1378.448070260142

DIPOLE MOMENT
-------------

Method             : SCF
Type of density    : Electron Density
Multiplicity       :   1
Irrep              :   0
Energy             : -1378.3418394511350016 Eh
Relativity type    :
Basis              : AO
                                X                 Y                 Z
Electronic contribution:     -0.821368921      -0.035612474      14.777799209
Nuclear contribution   :      0.919913891       0.036743236     -16.579916230
                        -----------------------------------------
Total Dipole Moment    :      0.098544970       0.001130761      -1.802117021
                        -----------------------------------------
Magnitude (a.u.)       :      1.804809726
Magnitude (Debye)      :      4.587461752

Rotational constants in cm-1:             0.005356             0.005348             0.003162
Rotational constants in MHz :           160.555281           160.327799            94.803607

                             ****ORCA TERMINATED NORMALLY****
TOTAL RUN TIME: 0 days 0 hours 8 minutes 31 seconds 402 msec
