                         Program Version 6.0.0  -   RELEASE   -
|  1> ! RIJCOSX M062X def2-TZVP D3ZERO NormalSCF
|  2> %pal
|  3> nprocs 6
|  4> end
|  5>
|  6> * xyz 0 1
|  7>   C           1.43922063246211      3.19553042837799     -1.15020678623785
|  8>   C           0.41109562875238      2.63026783935021     -1.81041222099463
|  9>   C          -0.64938549896906      1.78779707863368     -1.16923186671866
| 10>   P          -0.26915620301724     -0.05134496481344     -1.44752722843154
| 11>   C           1.17092584366554     -0.18967070564483     -0.28785694619412
| 12>   C           2.46438621870224     -0.07382586986773     -0.84025519099777
| 13>   C           3.59927437725112     -0.09833707805325     -0.01304277371003
| 14>   C           3.45372659035566     -0.25061820769300      1.37541411352940
| 15>   C           2.16901912168229     -0.37504902816396      1.93357626181370
| 16>   C           1.03402467044983     -0.34249535550749      1.10872455465982
| 17>   C          -1.59092692575264     -0.86093551545204     -0.43836633873733
| 18>   C          -2.68250327755480     -0.18474821558508      0.14567943723234
| 19>   C          -3.66410073286176     -0.89383825292904      0.86079402332166
| 20>   C          -3.56527743741375     -2.28548588084625      1.01055479357345
| 21>   C          -2.48100389980763     -2.97028160977585      0.43236037208185
| 22>   C          -1.51042392527874     -2.26623249374211     -0.29298118705991
| 23>   H           1.54656328443205      3.08995661676569     -0.05801445242490
| 24>   H           2.21129602127800      3.77618027408533     -1.67821557224445
| 25>   H           0.35412798951066      2.73427256060950     -2.90916805266197
| 26>   H          -1.64140008202260      1.97489622739774     -1.63294046064116
| 27>   H          -0.72135011836813      1.98421641251300     -0.07918582586951
| 28>   H           2.57783231295580      0.03847867369564     -1.92989315144747
| 29>   H           4.60244595640235     -0.00337215335140     -0.45670708008735
| 30>   H           4.34248280415097     -0.27684704049669      2.02466041554410
| 31>   H           2.05017241331610     -0.49710530559015      3.02157199464345
| 32>   H           0.03060613085379     -0.43861005468709      1.55155889955762
| 33>   H          -2.77669584919689      0.90692589232530      0.05335656541331
| 34>   H          -4.50941070923620     -0.34905043046841      1.30932245767749
| 35>   H          -4.33231309742587     -2.83806122489321      1.57435448082547
| 36>   H          -2.39536763012650     -4.06243739656589      0.54241680384032
| 37>   H          -0.66788560918908     -2.81017421962719     -0.75034003925534
| 38> **                         ****END OF INPUT****

CARTESIAN COORDINATES (ANGSTROEM)
---------------------------------
  C      1.439221    3.195530   -1.150207
  C      0.411096    2.630268   -1.810412
  C     -0.649385    1.787797   -1.169232
  P     -0.269156   -0.051345   -1.447527
  C      1.170926   -0.189671   -0.287857
  C      2.464386   -0.073826   -0.840255
  C      3.599274   -0.098337   -0.013043
  C      3.453727   -0.250618    1.375414
  C      2.169019   -0.375049    1.933576
  C      1.034025   -0.342495    1.108725
  C     -1.590927   -0.860936   -0.438366
  C     -2.682503   -0.184748    0.145679
  C     -3.664101   -0.893838    0.860794
  C     -3.565277   -2.285486    1.010555
  C     -2.481004   -2.970282    0.432360
  C     -1.510424   -2.266232   -0.292981
  H      1.546563    3.089957   -0.058014
  H      2.211296    3.776180   -1.678216
  H      0.354128    2.734273   -2.909168
  H     -1.641400    1.974896   -1.632940
  H     -0.721350    1.984216   -0.079186
  H      2.577832    0.038479   -1.929893
  H      4.602446   -0.003372   -0.456707
  H      4.342483   -0.276847    2.024660
  H      2.050172   -0.497105    3.021572
  H      0.030606   -0.438610    1.551559
  H     -2.776696    0.906926    0.053357
  H     -4.509411   -0.349050    1.309322
  H     -4.332313   -2.838061    1.574354
  H     -2.395368   -4.062437    0.542417
  H     -0.667886   -2.810174   -0.750340

 Total Charge           Charge          ....    0
 Multiplicity           Mult            ....    1
 Number of Electrons    NEL             ....  120
 Basis Dimension        Dim             ....  592

ORBITAL ENERGIES
----------------

  NO   OCC          E(Eh)            E(eV)
   0   2.0000     -78.031087     -2123.3338
   1   2.0000     -10.557045      -287.2718
   2   2.0000     -10.554317      -287.1976
   3   2.0000     -10.553077      -287.1638
   4   2.0000     -10.552866      -287.1581
   5   2.0000     -10.552351      -287.1441
   6   2.0000     -10.551826      -287.1298
   7   2.0000     -10.551821      -287.1296
   8   2.0000     -10.551021      -287.1079
   9   2.0000     -10.550239      -287.0866
  10   2.0000     -10.549705      -287.0721
  11   2.0000     -10.549194      -287.0581
  12   2.0000     -10.548956      -287.0517
  13   2.0000     -10.548398      -287.0365
  14   2.0000     -10.548187      -287.0308
  15   2.0000     -10.535014      -286.6723
  16   2.0000      -6.846898      -186.3136
  17   2.0000      -4.961380      -135.0060
  18   2.0000      -4.961059      -134.9973
  19   2.0000      -4.960916      -134.9934
  20   2.0000      -0.959889       -26.1199
  21   2.0000      -0.952788       -25.9267
  22   2.0000      -0.893171       -24.3044
  23   2.0000      -0.855623       -23.2827
  24   2.0000      -0.843090       -22.9417
  25   2.0000      -0.839192       -22.8356
  26   2.0000      -0.834495       -22.7078
  27   2.0000      -0.783072       -21.3085
  28   2.0000      -0.712659       -19.3924
  29   2.0000      -0.687438       -18.7061
  30   2.0000      -0.685581       -18.6556
  31   2.0000      -0.675824       -18.3901
  32   2.0000      -0.640569       -17.4308
  33   2.0000      -0.620000       -16.8711
  34   2.0000      -0.589526       -16.0418
  35   2.0000      -0.571411       -15.5489
  36   2.0000      -0.541019       -14.7219
  37   2.0000      -0.525738       -14.3061
  38   2.0000      -0.518553       -14.1105
  39   2.0000      -0.515700       -14.0329
  40   2.0000      -0.511535       -13.9196
  41   2.0000      -0.495431       -13.4814
  42   2.0000      -0.485945       -13.2232
  43   2.0000      -0.484354       -13.1800
  44   2.0000      -0.474136       -12.9019
  45   2.0000      -0.457882       -12.4596
  46   2.0000      -0.443628       -12.0717
  47   2.0000      -0.436373       -11.8743
  48   2.0000      -0.433995       -11.8096
  49   2.0000      -0.413441       -11.2503
  50   2.0000      -0.405813       -11.0427
  51   2.0000      -0.401526       -10.9261
  52   2.0000      -0.394792       -10.7428
  53   2.0000      -0.373212       -10.1556
  54   2.0000      -0.328695        -8.9442
  55   2.0000      -0.316567        -8.6142
  56   2.0000      -0.310929        -8.4608
  57   2.0000      -0.309893        -8.4326
  58   2.0000      -0.301622        -8.2075
  59   2.0000      -0.270595        -7.3633
  60   0.0000      -0.000432        -0.0117
  61   0.0000       0.007604         0.2069
  62   0.0000       0.007730         0.2103
  63   0.0000       0.022930         0.6240
  64   0.0000       0.033299         0.9061

MULLIKEN ATOMIC CHARGES
-----------------------
   0 C :   -0.319399
   1 C :   -0.100795
   2 C :   -0.436635
   3 P :    0.165716
   4 C :   -0.081082
   5 C :   -0.142768
   6 C :   -0.148468
   7 C :   -0.133582
   8 C :   -0.169360
   9 C :   -0.146560
  10 C :   -0.041586
  11 C :   -0.171775
  12 C :   -0.160591
  13 C :   -0.141012
  14 C :   -0.142846
  15 C :   -0.160669
  16 H :    0.147610
  17 H :    0.135178
  18 H :    0.146543
  19 H :    0.169710
  20 H :    0.189596
  21 H :    0.158295
  22 H :    0.144482
  23 H :    0.144540
  24 H :    0.144428
  25 H :    0.187142
  26 H :    0.168037
  27 H :    0.144648
  28 H :    0.145873
  29 H :    0.146464
  30 H :    0.158865
Sum of atomic charges:    0.0000000

LOEWDIN ATOMIC CHARGES
----------------------
   0 C :   -0.212674
   1 C :   -0.241045
   2 C :   -0.389109
   3 P :    0.661482
   4 C :   -0.277072
   5 C :   -0.140392
   6 C :   -0.145039
   7 C :   -0.142127
   8 C :   -0.144778
   9 C :   -0.136788
  10 C :   -0.283735
  11 C :   -0.150073
  12 C :   -0.143967
  13 C :   -0.143028
  14 C :   -0.142561
  15 C :   -0.139630
  16 H :    0.128786
  17 H :    0.125134
  18 H :    0.144689
  19 H :    0.141007
  20 H :    0.140072
  21 H :    0.149390
  22 H :    0.147367
  23 H :    0.146726
  24 H :    0.147242
  25 H :    0.156192
  26 H :    0.148605
  27 H :    0.147603
  28 H :    0.147130
  29 H :    0.148291
  30 H :    0.152303

  Mayer bond orders larger than 0.100000
B(  0-C ,  1-C ) :   1.8713 B(  0-C , 16-H ) :   0.9735 B(  0-C , 17-H ) :   0.9706
B(  1-C ,  2-C ) :   0.9533 B(  1-C , 18-H ) :   0.9552 B(  2-C ,  3-P ) :   0.9123
B(  2-C , 19-H ) :   0.9397 B(  2-C , 20-H ) :   0.9510 B(  3-P ,  4-C ) :   0.9432
B(  3-P , 10-C ) :   0.9637 B(  4-C ,  5-C ) :   1.3673 B(  4-C ,  9-C ) :   1.3300
B(  5-C ,  6-C ) :   1.4522 B(  5-C , 21-H ) :   0.9433 B(  6-C ,  7-C ) :   1.4436
B(  6-C , 22-H ) :   0.9483 B(  7-C ,  8-C ) :   1.4276 B(  7-C , 23-H ) :   0.9477
B(  8-C ,  9-C ) :   1.4765 B(  8-C , 24-H ) :   0.9441 B(  9-C , 25-H ) :   0.9263
B( 10-C , 11-C ) :   1.3605 B( 10-C , 15-C ) :   1.3753 B( 11-C , 12-C ) :   1.4654
B( 11-C , 26-H ) :   0.9211 B( 12-C , 13-C ) :   1.4558 B( 12-C , 27-H ) :   0.9425
B( 13-C , 14-C ) :   1.4194 B( 13-C , 28-H ) :   0.9464 B( 14-C , 15-C ) :   1.4741
B( 14-C , 29-H ) :   0.9469 B( 15-C , 30-H ) :   0.9377

Dispersion correction           -0.001688648
FINAL SINGLE POINT ENERGY      -921.899810739643

DIPOLE MOMENT
-------------

Method             : SCF
Type of density    : Electron Density
Multiplicity       :   1
Irrep              :   0
Energy             :  -921.8981220912002073 Eh
Relativity type    :
Basis              : AO
                                X                 Y                 Z
Electronic contribution:     -1.653864238      -5.143820720      -3.344959232
Nuclear contribution   :      1.597515489       5.201863187       3.812486470
                        -----------------------------------------
Total Dipole Moment    :     -0.056348749       0.058042466       0.467527238
                        -----------------------------------------
Magnitude (a.u.)       :      0.474474265
Magnitude (Debye)      :      1.206017737

Rotational constants in cm-1:             0.024512             0.011606             0.009126
Rotational constants in MHz :           734.847565           347.942571           273.603540

                             ****ORCA TERMINATED NORMALLY****
TOTAL RUN TIME: 0 days 0 hours 1 minutes 28 seconds 358 msec
