                         Program Version 6.0.0  -   RELEASE   -
|  1> ! RIJONX B3LYP def2-SVP D3BJ TIGHTSCF Opt
|  2> %pal
|  3> nprocs 6
|  4> end
|  5>
|  6> * xyz 0 1
|  7> C     -0.586997    3.982932   -0.560630
|  8> C     -0.244866    2.793783    0.325001
|  9> C     -0.639828    1.476080   -0.340673
| 10> P     -0.296546    0.010697    0.741283
| 11> C     -0.849364   -1.355828   -0.382471
| 12> C     -2.371564   -1.477163   -0.442822
| 13> C     -2.797152   -2.639466   -1.327919
| 14> C      1.540212   -0.122092    0.530319
| 15> C      2.129635   -1.299061    1.306711
| 16> C      3.643346   -1.352815    1.160898
| 17> H     -0.297299    4.917020   -0.069175
| 18> H     -0.058204    3.924165   -1.517332
| 19> H     -1.661954    4.025209   -0.763175
| 20> H      0.829948    2.813638    0.538422
| 21> H     -0.762703    2.906045    1.285568
| 22> H     -1.712691    1.498699   -0.560521
| 23> H     -0.115716    1.363717   -1.296435
| 24> H     -0.442832   -1.198147   -1.387790
| 25> H     -0.434086   -2.298345   -0.009528
| 26> H     -2.818824   -0.556448   -0.834499
| 27> H     -2.782295   -1.628174    0.563132
| 28> H     -3.888846   -2.711198   -1.360030
| 29> H     -2.435204   -2.505140   -2.352275
| 30> H     -2.405820   -3.587731   -0.945821
| 31> H      1.787054   -0.209884   -0.533712
| 32> H      1.996976    0.805050    0.893159
| 33> H      1.878319   -1.217750    2.371454
| 34> H      1.709585   -2.247116    0.951863
| 35> H      4.107499   -0.438911    1.545196
| 36> H      4.048086   -2.200842    1.722155
| 37> H      3.932131   -1.470923    0.111609
| 38> **                         ****END OF INPUT****
 Total Charge           Charge          ....    0
 Multiplicity           Mult            ....    1
 Number of Electrons    NEL             ....   90
Dispersion correction           -0.050116358
FINAL SINGLE POINT ENERGY      -696.344377359563
Dispersion correction             ... done (  0.1 sec)
Dispersion correction           -0.049646485
FINAL SINGLE POINT ENERGY      -696.346746878601
Dispersion correction             ... done (  0.1 sec)
Dispersion correction           -0.049505687
FINAL SINGLE POINT ENERGY      -696.347046328649
Dispersion correction             ... done (  0.1 sec)
FINAL SINGLE POINT ENERGY      -696.347124254516
Dispersion correction             ... done (  0.1 sec)
Dispersion correction           -0.049462305
FINAL SINGLE POINT ENERGY      -696.347137503637
Dispersion correction             ... done (  0.1 sec)
Dispersion correction           -0.049465613
FINAL SINGLE POINT ENERGY      -696.347140087056
Dispersion correction             ... done (  0.1 sec)
                    ***********************HURRAY********************

CARTESIAN COORDINATES (ANGSTROEM)
---------------------------------
  C     -0.584171    4.031588   -0.569661
  C     -0.266667    2.831873    0.323516
  C     -0.622157    1.491615   -0.327276
  P     -0.308482    0.011784    0.774444
  C     -0.872567   -1.345189   -0.383966
  C     -2.394251   -1.509861   -0.444767
  C     -2.834183   -2.662772   -1.347690
  C      1.541402   -0.145520    0.540753
  C      2.165709   -1.303662    1.325003
  C      3.684636   -1.380853    1.167558
  H     -0.322169    4.982811   -0.078615
  H     -0.026871    3.980813   -1.520300
  H     -1.657975    4.067889   -0.819577
  H      0.806494    2.845644    0.584452
  H     -0.809267    2.923503    1.280753
  H     -1.697646    1.479653   -0.576300
  H     -0.077374    1.367780   -1.281869
  H     -0.460694   -1.167598   -1.395031
  H     -0.417688   -2.282949   -0.019910
  H     -2.856441   -0.571871   -0.800511
  H     -2.781607   -1.666192    0.577336
  H     -3.931620   -2.760618   -1.373707
  H     -2.486376   -2.513836   -2.383832
  H     -2.420303   -3.623030   -0.996358
  H      1.775239   -0.235907   -0.536608
  H      1.985637    0.806884    0.879277
  H      1.904622   -1.199085    2.392752
  H      1.716869   -2.258631    0.998632
  H      4.168820   -0.455125    1.521710
  H      4.108969   -2.221057    1.740810
  H      3.970113   -1.518081    0.110943

 Multiplicity           Mult            ....    1
 Number of Electrons    NEL             ....   90
 Basis Dimension        Dim             ....  249

ORBITAL ENERGIES
----------------

  NO   OCC          E(Eh)            E(eV)
   0   2.0000     -77.028820     -2096.0607
   1   2.0000     -10.181954      -277.0651
   2   2.0000     -10.181928      -277.0643
   3   2.0000     -10.181906      -277.0638
   4   2.0000     -10.177811      -276.9523
   5   2.0000     -10.177774      -276.9513
   6   2.0000     -10.177721      -276.9499
   7   2.0000     -10.175352      -276.8854
   8   2.0000     -10.175351      -276.8854
   9   2.0000     -10.175336      -276.8850
  10   2.0000      -6.526518      -177.5956
  11   2.0000      -4.691848      -127.6717
  12   2.0000      -4.691846      -127.6716
  13   2.0000      -4.688874      -127.5907
  14   2.0000      -0.789220       -21.4758
  15   2.0000      -0.769773       -20.9466
  16   2.0000      -0.769743       -20.9458
  17   2.0000      -0.706869       -19.2349
  18   2.0000      -0.663370       -18.0512
  19   2.0000      -0.663320       -18.0498
  20   2.0000      -0.591254       -16.0888
  21   2.0000      -0.574724       -15.6390
  22   2.0000      -0.574644       -15.6369
  23   2.0000      -0.519460       -14.1352
  24   2.0000      -0.459334       -12.4991
  25   2.0000      -0.459277       -12.4976
  26   2.0000      -0.458307       -12.4712
  27   2.0000      -0.421986       -11.4828
  28   2.0000      -0.421961       -11.4822
  29   2.0000      -0.412294       -11.2191
  30   2.0000      -0.397484       -10.8161
  31   2.0000      -0.397459       -10.8154
  32   2.0000      -0.387415       -10.5421
  33   2.0000      -0.379676       -10.3315
  34   2.0000      -0.379576       -10.3288
  35   2.0000      -0.366332        -9.9684
  36   2.0000      -0.340304        -9.2602
  37   2.0000      -0.337864        -9.1938
  38   2.0000      -0.337836        -9.1930
  39   2.0000      -0.334072        -9.0906
  40   2.0000      -0.324352        -8.8261
  41   2.0000      -0.324336        -8.8256
  42   2.0000      -0.293595        -7.9891
  43   2.0000      -0.293558        -7.9881
  44   2.0000      -0.217826        -5.9273
  45   0.0000       0.050438         1.3725
  46   0.0000       0.050524         1.3748
  47   0.0000       0.057067         1.5529
  48   0.0000       0.078740         2.1426
  49   0.0000       0.082229         2.2376

MULLIKEN ATOMIC CHARGES
-----------------------
   0 C :    0.009101
   1 C :    0.017610
   2 C :   -0.151929
   3 P :    0.168487
   4 C :   -0.151751
   5 C :    0.017031
   6 C :    0.009217
   7 C :   -0.151772
   8 C :    0.017038
   9 C :    0.009237
  10 H :    0.010136
  11 H :    0.005749
  12 H :    0.006867
  13 H :    0.002220
  14 H :    0.008263
  15 H :    0.023929
  16 H :    0.011772
  17 H :    0.011847
  18 H :    0.024087
  19 H :    0.002356
  20 H :    0.008317
  21 H :    0.010112
  22 H :    0.005766
  23 H :    0.006885
  24 H :    0.011855
  25 H :    0.024145
  26 H :    0.008301
  27 H :    0.002388
  28 H :    0.006899
  29 H :    0.010107
  30 H :    0.005730
Sum of atomic charges:   -0.0000000

LOEWDIN ATOMIC CHARGES
----------------------
   0 C :   -0.056079
   1 C :   -0.047114
   2 C :   -0.176716
   3 P :    0.451848
   4 C :   -0.176749
   5 C :   -0.047133
   6 C :   -0.056055
   7 C :   -0.176801
   8 C :   -0.047143
   9 C :   -0.056034
  10 H :    0.022561
  11 H :    0.019988
  12 H :    0.020241
  13 H :    0.016215
  14 H :    0.020287
  15 H :    0.018443
  16 H :    0.011544
  17 H :    0.011585
  18 H :    0.018458
  19 H :    0.016207
  20 H :    0.020280
  21 H :    0.022561
  22 H :    0.019987
  23 H :    0.020238
  24 H :    0.011555
  25 H :    0.018508
  26 H :    0.020310
  27 H :    0.016218
  28 H :    0.020243
  29 H :    0.022561
  30 H :    0.019986

  Mayer bond orders larger than 0.100000
B(  0-C ,  1-C ) :   1.1066 B(  0-C , 10-H ) :   0.9662 B(  0-C , 11-H ) :   0.9699
B(  0-C , 12-H ) :   0.9706 B(  1-C ,  2-C ) :   1.0622 B(  1-C , 13-H ) :   0.9436
B(  1-C , 14-H ) :   0.9432 B(  2-C ,  3-P ) :   0.9670 B(  2-C , 15-H ) :   0.9417
B(  2-C , 16-H ) :   0.9280 B(  3-P ,  4-C ) :   0.9668 B(  3-P ,  7-C ) :   0.9669
B(  4-C ,  5-C ) :   1.0624 B(  4-C , 17-H ) :   0.9280 B(  4-C , 18-H ) :   0.9416
B(  5-C ,  6-C ) :   1.1066 B(  5-C , 19-H ) :   0.9435 B(  5-C , 20-H ) :   0.9432
B(  6-C , 21-H ) :   0.9662 B(  6-C , 22-H ) :   0.9699 B(  6-C , 23-H ) :   0.9706
B(  7-C ,  8-C ) :   1.0623 B(  7-C , 24-H ) :   0.9280 B(  7-C , 25-H ) :   0.9417
B(  8-C ,  9-C ) :   1.1067 B(  8-C , 26-H ) :   0.9431 B(  8-C , 27-H ) :   0.9436
B(  9-C , 28-H ) :   0.9707 B(  9-C , 29-H ) :   0.9661 B(  9-C , 30-H ) :   0.9698

Dispersion correction           -0.049467061
FINAL SINGLE POINT ENERGY      -696.347140553779

DIPOLE MOMENT
-------------

Method             : SCF
Type of density    : Electron Density
Multiplicity       :   1
Irrep              :   0
Energy             :  -696.2976734929379745 Eh
Relativity type    :
Basis              : AO
                                X                 Y                 Z
Electronic contribution:     -1.911472462       0.073212688       4.926514705
Nuclear contribution   :      2.056394741      -0.079122629      -5.297578892
                        -----------------------------------------
Total Dipole Moment    :      0.144922280      -0.005909942      -0.371064187
                        -----------------------------------------
Magnitude (a.u.)       :      0.398404349
Magnitude (Debye)      :      1.012663378

Rotational constants in cm-1:             0.025204             0.025163             0.013456
Rotational constants in MHz :           755.608279           754.382138           403.392672

                             ****ORCA TERMINATED NORMALLY****
TOTAL RUN TIME: 0 days 0 hours 1 minutes 47 seconds 650 msec
