                         Program Version 6.0.0  -   RELEASE   -
|  1> ! RI BP86 def2-SVP D3BJ TIGHTSCF Opt
|  2> %pal
|  3> nprocs 6
|  4> end
|  5>
|  6> * xyz 0 1
|  7> C     -2.923798   -3.507115    0.172678
|  8> C     -1.784779   -3.103210    0.863259
|  9> C     -1.023132   -2.026815    0.396558
| 10> C     -1.387953   -1.335052   -0.768095
| 11> C     -2.541489   -1.760369   -1.451289
| 12> C     -3.303197   -2.835626   -0.985283
| 13> P     -0.462648    0.076216   -1.455781
| 14> C     -1.274802    1.539507   -0.734402
| 15> C     -2.235571    1.487916    0.286084
| 16> C     -2.816136    2.657146    0.788979
| 17> C     -2.448646    3.898417    0.277664
| 18> C     -1.501566    3.972816   -0.738566
| 19> C     -0.922256    2.804165   -1.240777
| 20> C      1.148527   -0.002552   -0.605913
| 21> C      2.116775   -0.887768   -1.114398
| 22> C      3.378665   -1.004603   -0.519906
| 23> C      3.698510   -0.232290    0.599299
| 24> C      2.748262    0.653207    1.115595
| 25> C      1.487153    0.766366    0.517406
| 26> C      5.019414   -0.317986    1.267105
| 27> O      5.366561    0.316451    2.246014
| 28> O      5.847402   -1.197950    0.676632
| 29> H     -3.514164   -4.343840    0.536471
| 30> H     -1.484753   -3.624643    1.768745
| 31> H     -0.145712   -1.740240    0.970122
| 32> H     -2.862895   -1.252198   -2.359072
| 33> H     -4.191610   -3.146091   -1.529000
| 34> H     -2.551618    0.541060    0.716027
| 35> H     -3.557888    2.593565    1.581194
| 36> H     -2.901556    4.805355    0.669190
| 37> H     -1.211950    4.938790   -1.143903
| 38> H     -0.184010    2.892730   -2.036262
| 39> H      1.895676   -1.504110   -1.985085
| 40> H      4.099789   -1.701022   -0.940749
| 41> H      2.981658    1.262129    1.987240
| 42> H      0.778776    1.464471    0.957390
| 43> H      6.664962   -1.146827    1.214830
| 44> **                         ****END OF INPUT****
 Total Charge           Charge          ....    0
 Multiplicity           Mult            ....    1
 Number of Electrons    NEL             ....  160
Dispersion correction           -0.088087667
FINAL SINGLE POINT ENERGY     -1224.262891665213
Dispersion correction             ... done (  0.1 sec)
Dispersion correction           -0.088619713
FINAL SINGLE POINT ENERGY     -1224.268211589137
Dispersion correction             ... done (  0.1 sec)
Dispersion correction           -0.088827037
FINAL SINGLE POINT ENERGY     -1224.268949325761
Dispersion correction             ... done (  0.1 sec)
FINAL SINGLE POINT ENERGY     -1224.269192325386
FINAL SINGLE POINT ENERGY     -1224.269218644461
FINAL SINGLE POINT ENERGY     -1224.269230035934
Dispersion correction             ... done (  0.1 sec)
Dispersion correction           -0.088833212
FINAL SINGLE POINT ENERGY     -1224.269239030810
Dispersion correction             ... done (  0.1 sec)
Dispersion correction           -0.088849896
FINAL SINGLE POINT ENERGY     -1224.269240166655
Dispersion correction             ... done (  0.1 sec)
                    ***********************HURRAY********************

CARTESIAN COORDINATES (ANGSTROEM)
---------------------------------
  C     -2.899526   -3.448723    0.189120
  C     -1.718304   -3.046696    0.834921
  C     -0.953896   -1.987535    0.318271
  C     -1.361848   -1.323044   -0.857856
  C     -2.543501   -1.742373   -1.508275
  C     -3.312557   -2.791920   -0.983062
  P     -0.450135    0.100736   -1.612598
  C     -1.270300    1.537075   -0.781691
  C     -2.143458    1.415315    0.319467
  C     -2.715776    2.559707    0.898968
  C     -2.419086    3.835567    0.390954
  C     -1.552261    3.964965   -0.708119
  C     -0.990265    2.822177   -1.297400
  C      1.148749    0.015853   -0.683518
  C      2.085087   -0.958186   -1.102599
  C      3.319019   -1.089381   -0.456706
  C      3.649105   -0.229263    0.613561
  C      2.726107    0.753326    1.025188
  C      1.486289    0.874233    0.385373
  C      4.950656   -0.316246    1.336041
  O      5.283825    0.401534    2.265703
  O      5.759119   -1.300350    0.851262
  H     -3.497132   -4.278299    0.597043
  H     -1.389527   -3.558292    1.752812
  H     -0.035191   -1.670947    0.834315
  H     -2.861028   -1.235995   -2.434160
  H     -4.234282   -3.105664   -1.496919
  H     -2.373060    0.419486    0.727107
  H     -3.396622    2.452709    1.757681
  H     -2.867696    4.730601    0.848539
  H     -1.320090    4.961247   -1.114998
  H     -0.321690    2.923846   -2.167764
  H      1.835644   -1.624159   -1.944351
  H      4.040680   -1.852449   -0.779725
  H      3.002586    1.411901    1.861917
  H      0.768275    1.636555    0.721604
  H      6.572091   -1.257308    1.399897

 Multiplicity           Mult            ....    1
 Number of Electrons    NEL             ....  160
 Basis Dimension        Dim             ....  387

ORBITAL ENERGIES
----------------

  NO   OCC          E(Eh)            E(eV)
   0   2.0000     -76.353007     -2077.6710
   1   2.0000     -18.826390      -512.2921
   2   2.0000     -18.766954      -510.6748
   3   2.0000     -10.036294      -273.1014
   4   2.0000      -9.937731      -270.4194
   5   2.0000      -9.936115      -270.3754
   6   2.0000      -9.933013      -270.2910
   7   2.0000      -9.932346      -270.2729
   8   2.0000      -9.932141      -270.2673
   9   2.0000      -9.931316      -270.2449
  10   2.0000      -9.930563      -270.2244
  11   2.0000      -9.929433      -270.1936
  12   2.0000      -9.929089      -270.1842
  13   2.0000      -9.928768      -270.1755
  14   2.0000      -9.928196      -270.1599
  15   2.0000      -9.927787      -270.1488
  16   2.0000      -9.927727      -270.1472
  17   2.0000      -9.927565      -270.1428
  18   2.0000      -9.927479      -270.1404
  19   2.0000      -9.927265      -270.1346
  20   2.0000      -9.926800      -270.1220
  21   2.0000      -9.926559      -270.1154
  22   2.0000      -6.321411      -172.0143
  23   2.0000      -4.542842      -123.6170
  24   2.0000      -4.542814      -123.6163
  25   2.0000      -4.539279      -123.5201
  26   2.0000      -1.003123       -27.2964
  27   2.0000      -0.913995       -24.8711
  28   2.0000      -0.787489       -21.4287
  29   2.0000      -0.778973       -21.1969
  30   2.0000      -0.775324       -21.0976
  31   2.0000      -0.709812       -19.3150
  32   2.0000      -0.684865       -18.6361
  33   2.0000      -0.680515       -18.5177
  34   2.0000      -0.675627       -18.3847
  35   2.0000      -0.675161       -18.3721
  36   2.0000      -0.670889       -18.2558
  37   2.0000      -0.610792       -16.6205
  38   2.0000      -0.575529       -15.6609
  39   2.0000      -0.556479       -15.1426
  40   2.0000      -0.548297       -14.9199
  41   2.0000      -0.547040       -14.8857
  42   2.0000      -0.538149       -14.6438
  43   2.0000      -0.527942       -14.3660
  44   2.0000      -0.506617       -13.7858
  45   2.0000      -0.477513       -12.9938
  46   2.0000      -0.470128       -12.7928
  47   2.0000      -0.455615       -12.3979
  48   2.0000      -0.430262       -11.7080
  49   2.0000      -0.415550       -11.3077
  50   2.0000      -0.413534       -11.2528
  51   2.0000      -0.411907       -11.2086
  52   2.0000      -0.404886       -11.0175
  53   2.0000      -0.404297       -11.0015
  54   2.0000      -0.403380       -10.9765
  55   2.0000      -0.396375       -10.7859
  56   2.0000      -0.391121       -10.6430
  57   2.0000      -0.383909       -10.4467
  58   2.0000      -0.381571       -10.3831
  59   2.0000      -0.380464       -10.3529
  60   2.0000      -0.369302       -10.0492
  61   2.0000      -0.353554        -9.6207
  62   2.0000      -0.341709        -9.2984
  63   2.0000      -0.336775        -9.1641
  64   2.0000      -0.335345        -9.1252
  65   2.0000      -0.331425        -9.0185
  66   2.0000      -0.311270        -8.4701
  67   2.0000      -0.311087        -8.4651
  68   2.0000      -0.309872        -8.4320
  69   2.0000      -0.297696        -8.1007
  70   2.0000      -0.292366        -7.9557
  71   2.0000      -0.280144        -7.6231
  72   2.0000      -0.257922        -7.0184
  73   2.0000      -0.245047        -6.6681
  74   2.0000      -0.244066        -6.6414
  75   2.0000      -0.242150        -6.5892
  76   2.0000      -0.237331        -6.4581
  77   2.0000      -0.235738        -6.4148
  78   2.0000      -0.234478        -6.3805
  79   2.0000      -0.200944        -5.4680
  80   0.0000      -0.090219        -2.4550
  81   0.0000      -0.064260        -1.7486
  82   0.0000      -0.061369        -1.6699
  83   0.0000      -0.053416        -1.4535
  84   0.0000      -0.046474        -1.2646

MULLIKEN ATOMIC CHARGES
-----------------------
   0 C :    0.004440
   1 C :    0.003119
   2 C :    0.007113
   3 C :   -0.164882
   4 C :    0.018536
   5 C :   -0.000234
   6 P :    0.308828
   7 C :   -0.166190
   8 C :    0.009495
   9 C :    0.004682
  10 C :    0.004710
  11 C :    0.000242
  12 C :    0.012210
  13 C :   -0.147903
  14 C :    0.016972
  15 C :    0.006956
  16 C :   -0.035275
  17 C :    0.001610
  18 C :    0.010052
  19 C :    0.117838
  20 O :   -0.186576
  21 O :   -0.158576
  22 H :    0.007417
  23 H :    0.005964
  24 H :    0.018223
  25 H :    0.006121
  26 H :    0.007576
  27 H :    0.016888
  28 H :    0.005199
  29 H :    0.007527
  30 H :    0.007805
  31 H :    0.006440
  32 H :    0.008101
  33 H :    0.013208
  34 H :    0.015716
  35 H :    0.023085
  36 H :    0.183564
Sum of atomic charges:   -0.0000000

LOEWDIN ATOMIC CHARGES
----------------------
   0 C :   -0.027165
   1 C :   -0.029442
   2 C :   -0.035023
   3 C :   -0.172889
   4 C :   -0.032733
   5 C :   -0.029442
   6 P :    0.505429
   7 C :   -0.174676
   8 C :   -0.033118
   9 C :   -0.028862
  10 C :   -0.027076
  11 C :   -0.029787
  12 C :   -0.034815
  13 C :   -0.157488
  14 C :   -0.033072
  15 C :   -0.005534
  16 C :   -0.075263
  17 C :    0.006826
  18 C :   -0.035285
  19 C :    0.062121
  20 O :   -0.170682
  21 O :   -0.034831
  22 H :    0.034047
  23 H :    0.034609
  24 H :    0.035561
  25 H :    0.031878
  26 H :    0.034763
  27 H :    0.035911
  28 H :    0.034354
  29 H :    0.034101
  30 H :    0.034858
  31 H :    0.031721
  32 H :    0.033868
  33 H :    0.038636
  34 H :    0.041517
  35 H :    0.038325
  36 H :    0.098657

  Mayer bond orders larger than 0.100000
B(  0-C ,  1-C ) :   1.3781 B(  0-C ,  5-C ) :   1.3762 B(  0-C , 22-H ) :   0.9758
B(  1-C ,  2-C ) :   1.3843 B(  1-C , 23-H ) :   0.9750 B(  2-C ,  3-C ) :   1.3770
B(  2-C , 24-H ) :   0.9670 B(  3-C ,  4-C ) :   1.3640 B(  3-C ,  6-P ) :   0.9424
B(  4-C ,  5-C ) :   1.4016 B(  4-C , 25-H ) :   0.9717 B(  5-C , 26-H ) :   0.9759
B(  6-P ,  7-C ) :   0.9368 B(  6-P , 13-C ) :   0.9327 B(  7-C ,  8-C ) :   1.3813
B(  7-C , 12-C ) :   1.3611 B(  8-C ,  9-C ) :   1.3849 B(  8-C , 27-H ) :   0.9670
B(  9-C , 10-C ) :   1.3779 B(  9-C , 28-H ) :   0.9747 B( 10-C , 11-C ) :   1.3764
B( 10-C , 29-H ) :   0.9757 B( 11-C , 12-C ) :   1.4016 B( 11-C , 30-H ) :   0.9760
B( 12-C , 31-H ) :   0.9719 B( 13-C , 14-C ) :   1.3401 B( 13-C , 18-C ) :   1.3675
B( 14-C , 15-C ) :   1.3947 B( 14-C , 32-H ) :   0.9718 B( 15-C , 16-C ) :   1.3348
B( 15-C , 33-H ) :   0.9755 B( 16-C , 17-C ) :   1.3720 B( 16-C , 19-C ) :   0.9367
B( 17-C , 18-C ) :   1.3582 B( 17-C , 34-H ) :   0.9754 B( 18-C , 35-H ) :   0.9692
B( 19-C , 20-O ) :   2.0986 B( 19-C , 21-O ) :   1.2590 B( 21-O , 36-H ) :   0.9380

Dispersion correction           -0.088856710
FINAL SINGLE POINT ENERGY     -1224.269240452638

DIPOLE MOMENT
-------------

Method             : SCF
Type of density    : Electron Density
Multiplicity       :   1
Irrep              :   0
Energy             : -1224.1803837424129142 Eh
Relativity type    :
Basis              : AO
                                X                 Y                 Z
Electronic contribution:      9.001297542      -0.260806274      -3.072264247
Nuclear contribution   :     -9.550327826      -0.097168544       3.064924602
                        -----------------------------------------
Total Dipole Moment    :     -0.549030284      -0.357974818      -0.007339645
                        -----------------------------------------
Magnitude (a.u.)       :      0.655464792
Magnitude (Debye)      :      1.666059097

Rotational constants in cm-1:             0.011204             0.005822             0.004378
Rotational constants in MHz :           335.889925           174.531766           131.257430

                             ****ORCA TERMINATED NORMALLY****
TOTAL RUN TIME: 0 days 0 hours 2 minutes 36 seconds 944 msec
