                         Program Version 6.0.0  -   RELEASE   -
|  1> ! RIJCOSX M062X def2-TZVP D3ZERO NormalSCF
|  2> %pal
|  3> nprocs 6
|  4> end
|  5>
|  6> * xyz 0 1
|  7>   C           4.16588684023777     -0.74426763964965     -0.32061390219128
|  8>   C           2.80455837937735     -0.32262905375391     -0.88286597712301
|  9>   C           1.64702345913888     -1.18541174956664     -0.36440825966875
| 10>   P          -0.00413036770089     -0.70486736939536     -1.11884144233298
| 11>   C          -1.13974677547767     -1.72566843748608     -0.02558677904558
| 12>   C          -2.61807950992465     -1.35600867456511     -0.20280228495002
| 13>   C          -3.55700407961639     -2.21263416644798      0.65261282345587
| 14>   C          -0.23105153663783      0.97002310006832     -0.33902441203685
| 15>   C          -0.50393342405662      2.06483564179726     -1.18507000191157
| 16>   C          -0.68169529085966      3.35570952712380     -0.65787167109559
| 17>   C          -0.58947320875051      3.56707135364069      0.72689507713825
| 18>   C          -0.31866013598666      2.48352707260003      1.58192253232440
| 19>   C          -0.14091275127940      1.19686117523159      1.05175226348017
| 20>   H           4.98336727300596     -0.10206985318231     -0.70769873921220
| 21>   H           4.40759844171521     -1.79410231750432     -0.59005039092704
| 22>   H           4.18255363461422     -0.67551024680715      0.78757547514811
| 23>   H           2.82342044427830     -0.36547926960754     -1.99427801407978
| 24>   H           2.60601839903618      0.74100032269785     -0.62599660756954
| 25>   H           1.59378093638106     -1.14036335265927      0.74683620151055
| 26>   H           1.81222294596711     -2.25380292719051     -0.62880880048867
| 27>   H          -0.83969396136634     -1.63070664682272      1.04245071429685
| 28>   H          -0.97033638400348     -2.78930121765763     -0.30550661428644
| 29>   H          -2.89241871547284     -1.44802057890955     -1.27684004978125
| 30>   H          -2.75495140422642     -0.28234554440418      0.05234245370746
| 31>   H          -3.32420741708512     -2.10732168155834      1.73327281760552
| 32>   H          -3.46709508441218     -3.28997224838211      0.39880404731261
| 33>   H          -4.61788740911049     -1.92187389866290      0.50937604827838
| 34>   H          -0.57686016598437      1.89507700511446     -2.27133382558332
| 35>   H          -0.89377349937457      4.19965448983786     -1.33250759798411
| 36>   H          -0.72870294302449      4.57678021745768      1.14299503663137
| 37>   H          -0.24560714490474      2.64400824290209      2.66898585574441
| 38>   H           0.06978745550328      0.35780872574162      1.73428602363403
| 39> **                         ****END OF INPUT****

CARTESIAN COORDINATES (ANGSTROEM)
---------------------------------
  C      4.165887   -0.744268   -0.320614
  C      2.804558   -0.322629   -0.882866
  C      1.647023   -1.185412   -0.364408
  P     -0.004130   -0.704867   -1.118841
  C     -1.139747   -1.725668   -0.025587
  C     -2.618080   -1.356009   -0.202802
  C     -3.557004   -2.212634    0.652613
  C     -0.231052    0.970023   -0.339024
  C     -0.503933    2.064836   -1.185070
  C     -0.681695    3.355710   -0.657872
  C     -0.589473    3.567071    0.726895
  C     -0.318660    2.483527    1.581923
  C     -0.140913    1.196861    1.051752
  H      4.983367   -0.102070   -0.707699
  H      4.407598   -1.794102   -0.590050
  H      4.182554   -0.675510    0.787575
  H      2.823420   -0.365479   -1.994278
  H      2.606018    0.741000   -0.625997
  H      1.593781   -1.140363    0.746836
  H      1.812223   -2.253803   -0.628809
  H     -0.839694   -1.630707    1.042451
  H     -0.970336   -2.789301   -0.305507
  H     -2.892419   -1.448021   -1.276840
  H     -2.754951   -0.282346    0.052342
  H     -3.324207   -2.107322    1.733273
  H     -3.467095   -3.289972    0.398804
  H     -4.617887   -1.921874    0.509376
  H     -0.576860    1.895077   -2.271334
  H     -0.893773    4.199654   -1.332508
  H     -0.728703    4.576780    1.142995
  H     -0.245607    2.644008    2.668986
  H      0.069787    0.357809    1.734286

 Total Charge           Charge          ....    0
 Multiplicity           Mult            ....    1
 Number of Electrons    NEL             ....  106
 Basis Dimension        Dim             ....  523

ORBITAL ENERGIES
----------------

  NO   OCC          E(Eh)            E(eV)
   0   2.0000     -78.017699     -2122.9695
   1   2.0000     -10.552274      -287.1420
   2   2.0000     -10.551943      -287.1330
   3   2.0000     -10.551066      -287.1091
   4   2.0000     -10.550332      -287.0891
   5   2.0000     -10.549882      -287.0769
   6   2.0000     -10.549335      -287.0620
   7   2.0000     -10.538172      -286.7582
   8   2.0000     -10.538017      -286.7540
   9   2.0000     -10.535851      -286.6951
  10   2.0000     -10.535731      -286.6918
  11   2.0000     -10.527569      -286.4697
  12   2.0000     -10.527421      -286.4657
  13   2.0000      -6.833693      -185.9542
  14   2.0000      -4.948166      -134.6464
  15   2.0000      -4.947897      -134.6391
  16   2.0000      -4.947707      -134.6339
  17   2.0000      -0.955575       -26.0025
  18   2.0000      -0.889170       -24.1956
  19   2.0000      -0.875427       -23.8216
  20   2.0000      -0.843115       -22.9423
  21   2.0000      -0.840540       -22.8723
  22   2.0000      -0.791918       -21.5492
  23   2.0000      -0.760026       -20.6814
  24   2.0000      -0.693532       -18.8720
  25   2.0000      -0.686185       -18.6720
  26   2.0000      -0.673439       -18.3252
  27   2.0000      -0.655762       -17.8442
  28   2.0000      -0.617583       -16.8053
  29   2.0000      -0.576526       -15.6881
  30   2.0000      -0.534295       -14.5389
  31   2.0000      -0.526246       -14.3199
  32   2.0000      -0.518921       -14.1206
  33   2.0000      -0.513741       -13.9796
  34   2.0000      -0.487687       -13.2706
  35   2.0000      -0.487023       -13.2526
  36   2.0000      -0.484717       -13.1898
  37   2.0000      -0.466194       -12.6858
  38   2.0000      -0.465183       -12.6583
  39   2.0000      -0.444792       -12.1034
  40   2.0000      -0.443436       -12.0665
  41   2.0000      -0.432836       -11.7781
  42   2.0000      -0.429717       -11.6932
  43   2.0000      -0.405402       -11.0315
  44   2.0000      -0.403575       -10.9818
  45   2.0000      -0.394169       -10.7259
  46   2.0000      -0.389499       -10.5988
  47   2.0000      -0.383339       -10.4312
  48   2.0000      -0.360929        -9.8214
  49   2.0000      -0.353823        -9.6280
  50   2.0000      -0.309897        -8.4327
  51   2.0000      -0.303454        -8.2574
  52   2.0000      -0.279702        -7.6111
  53   0.0000       0.001836         0.0500
  54   0.0000       0.015167         0.4127
  55   0.0000       0.060836         1.6554
  56   0.0000       0.065015         1.7692
  57   0.0000       0.073030         1.9872

MULLIKEN ATOMIC CHARGES
-----------------------
   0 C :   -0.422531
   1 C :   -0.251993
   2 C :   -0.407796
   3 P :    0.188336
   4 C :   -0.413580
   5 C :   -0.251681
   6 C :   -0.422073
   7 C :   -0.119527
   8 C :   -0.087730
   9 C :   -0.155863
  10 C :   -0.131155
  11 C :   -0.170621
  12 C :   -0.152428
  13 H :    0.142663
  14 H :    0.135651
  15 H :    0.135757
  16 H :    0.143330
  17 H :    0.154431
  18 H :    0.158618
  19 H :    0.157380
  20 H :    0.159373
  21 H :    0.159037
  22 H :    0.143894
  23 H :    0.155315
  24 H :    0.135409
  25 H :    0.135730
  26 H :    0.142797
  27 H :    0.153260
  28 H :    0.145078
  29 H :    0.145527
  30 H :    0.144394
  31 H :    0.150998
Sum of atomic charges:   -0.0000000

LOEWDIN ATOMIC CHARGES
----------------------
   0 C :   -0.325785
   1 C :   -0.329838
   2 C :   -0.417589
   3 P :    0.599928
   4 C :   -0.418067
   5 C :   -0.329609
   6 C :   -0.325745
   7 C :   -0.285062
   8 C :   -0.146812
   9 C :   -0.142942
  10 C :   -0.140871
  11 C :   -0.144707
  12 C :   -0.142209
  13 H :    0.122382
  14 H :    0.121325
  15 H :    0.121514
  16 H :    0.138032
  17 H :    0.141612
  18 H :    0.126821
  19 H :    0.135241
  20 H :    0.126326
  21 H :    0.135327
  22 H :    0.138164
  23 H :    0.141766
  24 H :    0.121449
  25 H :    0.121313
  26 H :    0.122430
  27 H :    0.148325
  28 H :    0.147337
  29 H :    0.146998
  30 H :    0.146980
  31 H :    0.145966

  Mayer bond orders larger than 0.100000
B(  0-C ,  1-C ) :   0.9444 B(  0-C , 13-H ) :   0.9788 B(  0-C , 14-H ) :   0.9739
B(  0-C , 15-H ) :   0.9735 B(  1-C ,  2-C ) :   0.9155 B(  1-C , 16-H ) :   0.9701
B(  1-C , 17-H ) :   0.9703 B(  2-C ,  3-P ) :   0.9695 B(  2-C , 18-H ) :   0.9624
B(  2-C , 19-H ) :   0.9480 B(  3-P ,  4-C ) :   0.9691 B(  3-P ,  7-C ) :   0.9413
B(  4-C ,  5-C ) :   0.9116 B(  4-C , 20-H ) :   0.9637 B(  4-C , 21-H ) :   0.9483
B(  5-C ,  6-C ) :   0.9436 B(  5-C , 22-H ) :   0.9693 B(  5-C , 23-H ) :   0.9718
B(  6-C , 24-H ) :   0.9734 B(  6-C , 25-H ) :   0.9739 B(  6-C , 26-H ) :   0.9789
B(  7-C ,  8-C ) :   1.3964 B(  7-C , 12-C ) :   1.2913 B(  8-C ,  9-C ) :   1.4471
B(  8-C , 27-H ) :   0.9270 B(  9-C , 10-C ) :   1.4495 B(  9-C , 28-H ) :   0.9478
B( 10-C , 11-C ) :   1.4289 B( 10-C , 29-H ) :   0.9463 B( 11-C , 12-C ) :   1.4923
B( 11-C , 30-H ) :   0.9429 B( 12-C , 31-H ) :   0.9330

Dispersion correction           -0.001567357
FINAL SINGLE POINT ENERGY      -810.013090894459

DIPOLE MOMENT
-------------

Method             : SCF
Type of density    : Electron Density
Multiplicity       :   1
Irrep              :   0
Energy             :  -810.0115235371488325 Eh
Relativity type    :
Basis              : AO
                                X                 Y                 Z
Electronic contribution:     -2.188973546       8.520670959      -4.462618236
Nuclear contribution   :      2.224980939      -8.424601913       4.905350757
                        -----------------------------------------
Total Dipole Moment    :      0.036007393       0.096069046       0.442732521
                        -----------------------------------------
Magnitude (a.u.)       :      0.454464387
Magnitude (Debye)      :      1.155156669

Rotational constants in cm-1:             0.020574             0.018790             0.011636
Rotational constants in MHz :           616.798040           563.307803           348.852908

                             ****ORCA TERMINATED NORMALLY****
TOTAL RUN TIME: 0 days 0 hours 1 minutes 7 seconds 45 msec
