                         Program Version 6.0.0  -   RELEASE   -
|  1> ! RIJCOSX M062X def2-TZVP D3ZERO NormalSCF
|  2> %pal
|  3> nprocs 6
|  4> end
|  5>
|  6> * xyz 0 1
|  7>   C           5.43890353409871     -1.32893801140938      1.88448430792332
|  8>   C           4.94418018312355     -1.23335955830447      0.63129715680536
|  9>   C           3.54210790826036     -1.01185810641057      0.24084040753926
| 10>   C           3.21509332615402     -0.93689806163391     -1.13492933229482
| 11>   C           1.89807084525417     -0.72592275136701     -1.56010939623901
| 12>   C           0.86832986095211     -0.57677751457018     -0.61080496186187
| 13>   C           1.17327925984189     -0.66892139038685      0.76433261761033
| 14>   C           2.49128189768705     -0.87878330340949      1.18205595456208
| 15>   P          -0.81415688388139     -0.27284128482634     -1.26338807532498
| 16>   O          -1.02292313703972     -0.83194591796079     -2.66075859993318
| 17>   C          -1.95515201764348     -0.98683385957094     -0.02030191771894
| 18>   C          -2.35710536433063     -0.30878584264424      1.14787702662996
| 19>   C          -3.21729949924721     -0.93963746189415      2.06159247296911
| 20>   C          -3.68297717955610     -2.24093079558164      1.80650647646845
| 21>   C          -3.29589555430355     -2.91091171043093      0.63248707584020
| 22>   C          -2.43570384659440     -2.28586397862587     -0.28291803134863
| 23>   C          -1.05758391328728      1.54066600992487     -1.16825302676542
| 24>   C          -1.91998246911102      2.10830683277676     -2.12808341930478
| 25>   C          -2.17592137014067      3.48773455085289     -2.10876660546329
| 26>   C          -1.56897631115551      4.30364411807795     -1.13781169932522
| 27>   C          -0.69598855543238      3.74148445747304     -0.19058406122973
| 28>   C          -0.43472929419477      2.36156980757695     -0.20663293077939
| 29>   H           4.80267513425798     -1.24576660683618      2.78004860657854
| 30>   H           6.51260688549519     -1.49603686138879      2.05675800368736
| 31>   H           5.64720371158642     -1.32721355712395     -0.21538398304069
| 32>   H           4.01724264022446     -1.05304348809404     -1.88119597264971
| 33>   H           1.64387538728904     -0.68703239688399     -2.63059704156514
| 34>   H           0.36948255352447     -0.59451819350688      1.51311653386144
| 35>   H           2.70843606184583     -0.95102437206840      2.25819828433575
| 36>   H          -2.01277205657003      0.72014598921724      1.33478432319932
| 37>   H          -3.53368539123105     -0.40890916614653      2.97271950765835
| 38>   H          -4.35998580076993     -2.73213840928402      2.52230249478383
| 39>   H          -3.67230874628678     -3.92479277737359      0.42665524769072
| 40>   H          -2.13530493808237     -2.78314011400511     -1.21824259103942
| 41>   H          -2.36824670535387      1.45317258051336     -2.89115470210693
| 42>   H          -2.84843859491259      3.93111621660992     -2.85918753897879
| 43>   H          -1.76931867883784      5.38609750006944     -1.12548032701233
| 44>   H          -0.20757392035574      4.38280730644971      0.55913326123218
| 45>   H           0.26925903872306      1.92607812219608      0.51939345460671
| 46> **                         ****END OF INPUT****

CARTESIAN COORDINATES (ANGSTROEM)
---------------------------------
  C      5.438904   -1.328938    1.884484
  C      4.944180   -1.233360    0.631297
  C      3.542108   -1.011858    0.240840
  C      3.215093   -0.936898   -1.134929
  C      1.898071   -0.725923   -1.560109
  C      0.868330   -0.576778   -0.610805
  C      1.173279   -0.668921    0.764333
  C      2.491282   -0.878783    1.182056
  P     -0.814157   -0.272841   -1.263388
  O     -1.022923   -0.831946   -2.660759
  C     -1.955152   -0.986834   -0.020302
  C     -2.357105   -0.308786    1.147877
  C     -3.217299   -0.939637    2.061592
  C     -3.682977   -2.240931    1.806506
  C     -3.295896   -2.910912    0.632487
  C     -2.435704   -2.285864   -0.282918
  C     -1.057584    1.540666   -1.168253
  C     -1.919982    2.108307   -2.128083
  C     -2.175921    3.487735   -2.108767
  C     -1.568976    4.303644   -1.137812
  C     -0.695989    3.741484   -0.190584
  C     -0.434729    2.361570   -0.206633
  H      4.802675   -1.245767    2.780049
  H      6.512607   -1.496037    2.056758
  H      5.647204   -1.327214   -0.215384
  H      4.017243   -1.053043   -1.881196
  H      1.643875   -0.687032   -2.630597
  H      0.369483   -0.594518    1.513117
  H      2.708436   -0.951024    2.258198
  H     -2.012772    0.720146    1.334784
  H     -3.533685   -0.408909    2.972720
  H     -4.359986   -2.732138    2.522302
  H     -3.672309   -3.924793    0.426655
  H     -2.135305   -2.783140   -1.218243
  H     -2.368247    1.453173   -2.891155
  H     -2.848439    3.931116   -2.859188
  H     -1.769319    5.386098   -1.125480
  H     -0.207574    4.382807    0.559133
  H      0.269259    1.926078    0.519393

 Total Charge           Charge          ....    0
 Multiplicity           Mult            ....    1
 Number of Electrons    NEL             ....  160
 Basis Dimension        Dim             ....  790

ORBITAL ENERGIES
----------------

  NO   OCC          E(Eh)            E(eV)
   0   2.0000     -78.097482     -2125.1405
   1   2.0000     -19.566904      -532.4425
   2   2.0000     -10.570324      -287.6331
   3   2.0000     -10.564344      -287.4704
   4   2.0000     -10.563650      -287.4515
   5   2.0000     -10.563648      -287.4515
   6   2.0000     -10.560637      -287.3695
   7   2.0000     -10.560504      -287.3659
   8   2.0000     -10.560297      -287.3603
   9   2.0000     -10.560190      -287.3574
  10   2.0000     -10.560107      -287.3551
  11   2.0000     -10.560086      -287.3545
  12   2.0000     -10.559702      -287.3441
  13   2.0000     -10.559151      -287.3291
  14   2.0000     -10.559009      -287.3252
  15   2.0000     -10.558883      -287.3218
  16   2.0000     -10.558426      -287.3094
  17   2.0000     -10.558253      -287.3047
  18   2.0000     -10.557752      -287.2910
  19   2.0000     -10.557014      -287.2710
  20   2.0000     -10.556873      -287.2671
  21   2.0000     -10.551631      -287.1245
  22   2.0000      -6.903701      -187.8593
  23   2.0000      -5.020829      -136.6237
  24   2.0000      -5.020828      -136.6237
  25   2.0000      -5.019126      -136.5774
  26   2.0000      -1.062624       -28.9155
  27   2.0000      -0.971958       -26.4483
  28   2.0000      -0.965517       -26.2731
  29   2.0000      -0.962779       -26.1985
  30   2.0000      -0.899124       -24.4664
  31   2.0000      -0.864319       -23.5193
  32   2.0000      -0.851334       -23.1660
  33   2.0000      -0.849829       -23.1250
  34   2.0000      -0.849027       -23.1032
  35   2.0000      -0.845476       -23.0066
  36   2.0000      -0.827199       -22.5092
  37   2.0000      -0.740564       -20.1518
  38   2.0000      -0.706990       -19.2382
  39   2.0000      -0.698128       -18.9970
  40   2.0000      -0.696557       -18.9543
  41   2.0000      -0.693197       -18.8628
  42   2.0000      -0.684700       -18.6316
  43   2.0000      -0.646958       -17.6046
  44   2.0000      -0.637470       -17.3464
  45   2.0000      -0.599310       -16.3081
  46   2.0000      -0.592769       -16.1301
  47   2.0000      -0.573500       -15.6057
  48   2.0000      -0.549627       -14.9561
  49   2.0000      -0.534451       -14.5431
  50   2.0000      -0.530985       -14.4488
  51   2.0000      -0.526282       -14.3209
  52   2.0000      -0.522751       -14.2248
  53   2.0000      -0.520194       -14.1552
  54   2.0000      -0.505939       -13.7673
  55   2.0000      -0.495776       -13.4908
  56   2.0000      -0.494494       -13.4559
  57   2.0000      -0.493989       -13.4421
  58   2.0000      -0.490576       -13.3492
  59   2.0000      -0.485913       -13.2224
  60   2.0000      -0.458371       -12.4729
  61   2.0000      -0.453788       -12.3482
  62   2.0000      -0.450219       -12.2511
  63   2.0000      -0.443836       -12.0774
  64   2.0000      -0.434671       -11.8280
  65   2.0000      -0.419085       -11.4039
  66   2.0000      -0.412893       -11.2354
  67   2.0000      -0.410800       -11.1784
  68   2.0000      -0.407018       -11.0755
  69   2.0000      -0.406580       -11.0636
  70   2.0000      -0.402937       -10.9645
  71   2.0000      -0.372964       -10.1489
  72   2.0000      -0.340278        -9.2594
  73   2.0000      -0.337032        -9.1711
  74   2.0000      -0.321114        -8.7379
  75   2.0000      -0.319326        -8.6893
  76   2.0000      -0.317855        -8.6493
  77   2.0000      -0.315759        -8.5922
  78   2.0000      -0.313540        -8.5318
  79   2.0000      -0.287781        -7.8309
  80   0.0000      -0.033206        -0.9036
  81   0.0000      -0.011940        -0.3249
  82   0.0000      -0.003124        -0.0850
  83   0.0000       0.001514         0.0412
  84   0.0000       0.010656         0.2900

MULLIKEN ATOMIC CHARGES
-----------------------
   0 C :   -0.296963
   1 C :   -0.158187
   2 C :    0.207626
   3 C :   -0.171777
   4 C :   -0.156551
   5 C :   -0.091759
   6 C :   -0.217340
   7 C :   -0.193516
   8 P :    0.632818
   9 O :   -0.599020
  10 C :   -0.069378
  11 C :   -0.198401
  12 C :   -0.150266
  13 C :   -0.134132
  14 C :   -0.137494
  15 C :   -0.148964
  16 C :   -0.069205
  17 C :   -0.149855
  18 C :   -0.135446
  19 C :   -0.134903
  20 C :   -0.150280
  21 C :   -0.198765
  22 H :    0.123814
  23 H :    0.139587
  24 H :    0.129724
  25 H :    0.149288
  26 H :    0.185584
  27 H :    0.194576
  28 H :    0.141838
  29 H :    0.195082
  30 H :    0.148503
  31 H :    0.149433
  32 H :    0.149992
  33 H :    0.185814
  34 H :    0.186299
  35 H :    0.150217
  36 H :    0.149150
  37 H :    0.148774
  38 H :    0.194084
Sum of atomic charges:   -0.0000000

LOEWDIN ATOMIC CHARGES
----------------------
   0 C :   -0.190205
   1 C :   -0.160207
   2 C :   -0.130537
   3 C :   -0.098300
   4 C :   -0.112109
   5 C :   -0.228143
   6 C :   -0.136739
   7 C :   -0.095219
   8 P :    0.684919
   9 O :   -0.307851
  10 C :   -0.229154
  11 C :   -0.138473
  12 C :   -0.141235
  13 C :   -0.131752
  14 C :   -0.135083
  15 C :   -0.113693
  16 C :   -0.229228
  17 C :   -0.113833
  18 C :   -0.135187
  19 C :   -0.131726
  20 C :   -0.141176
  21 C :   -0.138488
  22 H :    0.123625
  23 H :    0.128282
  24 H :    0.152871
  25 H :    0.152469
  26 H :    0.161758
  27 H :    0.156375
  28 H :    0.150479
  29 H :    0.155587
  30 H :    0.148773
  31 H :    0.148780
  32 H :    0.149780
  33 H :    0.160874
  34 H :    0.160955
  35 H :    0.149755
  36 H :    0.148761
  37 H :    0.148821
  38 H :    0.155473

  Mayer bond orders larger than 0.100000
B(  0-C ,  1-C ) :   1.8528 B(  0-C , 22-H ) :   0.9656 B(  0-C , 23-H ) :   0.9700
B(  1-C ,  2-C ) :   0.9977 B(  1-C , 24-H ) :   0.9525 B(  2-C ,  3-C ) :   1.3831
B(  2-C ,  7-C ) :   1.3437 B(  3-C ,  4-C ) :   1.4716 B(  3-C , 25-H ) :   0.9245
B(  4-C ,  5-C ) :   1.4438 B(  4-C , 26-H ) :   0.9098 B(  5-C ,  6-C ) :   1.3036
B(  5-C ,  8-P ) :   0.9244 B(  6-C ,  7-C ) :   1.5839 B(  6-C , 27-H ) :   0.9088
B(  7-C , 28-H ) :   0.9076 B(  8-P ,  9-O ) :   1.9430 B(  8-P , 10-C ) :   0.9180
B(  8-P , 16-C ) :   0.9181 B( 10-C , 11-C ) :   1.3193 B( 10-C , 15-C ) :   1.4356
B( 11-C , 12-C ) :   1.4817 B( 11-C , 29-H ) :   0.9165 B( 12-C , 13-C ) :   1.4443
B( 12-C , 30-H ) :   0.9435 B( 13-C , 14-C ) :   1.4308 B( 13-C , 31-H ) :   0.9463
B( 14-C , 15-C ) :   1.4407 B( 14-C , 32-H ) :   0.9474 B( 15-C , 33-H ) :   0.9087
B( 16-C , 17-C ) :   1.4345 B( 16-C , 21-C ) :   1.3215 B( 17-C , 18-C ) :   1.4402
B( 17-C , 34-H ) :   0.9088 B( 18-C , 19-C ) :   1.4317 B( 18-C , 35-H ) :   0.9470
B( 19-C , 20-C ) :   1.4434 B( 19-C , 36-H ) :   0.9466 B( 20-C , 21-C ) :   1.4835
B( 20-C , 37-H ) :   0.9431 B( 21-C , 38-H ) :   0.9165

Dispersion correction           -0.002589355
FINAL SINGLE POINT ENERGY     -1188.905290307432

DIPOLE MOMENT
-------------

Method             : SCF
Type of density    : Electron Density
Multiplicity       :   1
Irrep              :   0
Energy             : -1188.9027009524379537 Eh
Relativity type    :
Basis              : AO
                                X                 Y                 Z
Electronic contribution:     -5.979846440      -0.925947683      -7.372006690
Nuclear contribution   :      6.221632584       1.535584765       8.914217615
                        -----------------------------------------
Total Dipole Moment    :      0.241786144       0.609637082       1.542210925
                        -----------------------------------------
Magnitude (a.u.)       :      1.675867670
Magnitude (Debye)      :      4.259717092

Rotational constants in cm-1:             0.010314             0.006597             0.005028
Rotational constants in MHz :           309.202396           197.768258           150.721426

                             ****ORCA TERMINATED NORMALLY****
TOTAL RUN TIME: 0 days 0 hours 2 minutes 31 seconds 626 msec
