                         Program Version 6.0.0  -   RELEASE   -
|  1> ! RI BP86 def2-SVP D3BJ TIGHTSCF Opt
|  2> %pal
|  3> nprocs 6
|  4> end
|  5>
|  6> * xyz 0 1
|  7> C      4.270367   -0.632994   -0.090137
|  8> C      3.856916   -0.399678   -1.400404
|  9> C      2.511241   -0.151085   -1.673609
| 10> C      1.564100   -0.133028   -0.638691
| 11> C      1.994249   -0.368315    0.675396
| 12> C      3.340270   -0.616238    0.947648
| 13> P     -0.174509    0.165619   -1.014460
| 14> O     -0.418336    0.255381   -2.518860
| 15> C     -1.089290   -1.230491   -0.287461
| 16> C     -1.360856   -2.339006   -1.089878
| 17> C     -2.052652   -3.415593   -0.543571
| 18> C     -2.455249   -3.362104    0.784972
| 19> C     -2.149197   -2.228260    1.517526
| 20> N     -1.480265   -1.167472    1.016370
| 21> C     -0.727111    1.667758   -0.160173
| 22> C     -2.001179    2.160085   -0.448484
| 23> C     -2.440340    3.318327    0.185813
| 24> C     -1.600434    3.960255    1.086736
| 25> C     -0.348233    3.417071    1.316050
| 26> N      0.106606    2.296096    0.716577
| 27> H      5.318868   -0.823172    0.123198
| 28> H      4.582178   -0.408434   -2.209849
| 29> H      2.196142    0.031857   -2.699517
| 30> H      1.277536   -0.346487    1.494891
| 31> H      3.662453   -0.790834    1.970828
| 32> H     -1.037267   -2.357688   -2.127019
| 33> H     -2.274683   -4.288677   -1.150962
| 34> H     -2.995073   -4.185357    1.239435
| 35> H     -2.442914   -2.140287    2.559894
| 36> H     -2.637582    1.646733   -1.163174
| 37> H     -3.428718    3.716794   -0.024544
| 38> H     -1.912589    4.864670    1.596431
| 39> H      0.345552    3.884555    2.009030
| 40> **                         ****END OF INPUT****
 Total Charge           Charge          ....    0
 Multiplicity           Mult            ....    1
 Number of Electrons    NEL             ....  146
Dispersion correction           -0.078510396
FINAL SINGLE POINT ENERGY     -1143.048375358954
Dispersion correction             ... done (  0.1 sec)
Dispersion correction           -0.078541368
FINAL SINGLE POINT ENERGY     -1143.055447511245
Dispersion correction             ... done (  0.1 sec)
Dispersion correction           -0.078635685
FINAL SINGLE POINT ENERGY     -1143.057394260127
Dispersion correction             ... done (  0.1 sec)
FINAL SINGLE POINT ENERGY     -1143.058724242355
FINAL SINGLE POINT ENERGY     -1143.059869182530
FINAL SINGLE POINT ENERGY     -1143.060345365158
FINAL SINGLE POINT ENERGY     -1143.060497435214
FINAL SINGLE POINT ENERGY     -1143.060536747354
Dispersion correction             ... done (  0.1 sec)
Dispersion correction           -0.078307648
FINAL SINGLE POINT ENERGY     -1143.060544520641
Dispersion correction             ... done (  0.1 sec)
Dispersion correction           -0.078302775
FINAL SINGLE POINT ENERGY     -1143.060546292323
Dispersion correction             ... done (  0.1 sec)
                    ***********************HURRAY********************

CARTESIAN COORDINATES (ANGSTROEM)
---------------------------------
  C      4.332787   -0.376887   -0.112977
  C      3.870731   -0.328083   -1.439583
  C      2.496657   -0.206145   -1.698675
  C      1.590064   -0.133623   -0.622365
  C      2.046648   -0.181481    0.712174
  C      3.423212   -0.303486    0.957440
  P     -0.169570    0.022705   -1.056291
  O     -0.461169    0.060645   -2.549675
  C     -1.041107   -1.373896   -0.216707
  C     -1.922799   -2.139745   -1.001953
  C     -2.599444   -3.201108   -0.381700
  C     -2.366354   -3.443835    0.981180
  C     -1.460354   -2.615311    1.669381
  N     -0.805908   -1.598288    1.087434
  C     -0.787828    1.535143   -0.192654
  C     -1.517037    2.457613   -0.965770
  C     -2.000388    3.610320   -0.327964
  C     -1.735731    3.784661    1.039571
  C     -0.993040    2.797969    1.714675
  N     -0.524203    1.692056    1.116048
  H      5.411059   -0.472606    0.089043
  H      4.584165   -0.385146   -2.276183
  H      2.103428   -0.164966   -2.726491
  H      1.318561   -0.121727    1.532188
  H      3.790741   -0.341404    1.994641
  H     -2.046601   -1.887467   -2.065990
  H     -3.297749   -3.831763   -0.953715
  H     -2.874759   -4.265240    1.508308
  H     -1.252331   -2.783554    2.741020
  H     -1.677653    2.249883   -2.034496
  H     -2.574355    4.363442   -0.890022
  H     -2.094917    4.673234    1.580370
  H     -0.764755    2.908090    2.789740

 Multiplicity           Mult            ....    1
 Number of Electrons    NEL             ....  146
 Basis Dimension        Dim             ....  349

ORBITAL ENERGIES
----------------

  NO   OCC          E(Eh)            E(eV)
   0   2.0000     -76.412294     -2079.2842
   1   2.0000     -18.720418      -509.4085
   2   2.0000     -14.021648      -381.5484
   3   2.0000     -14.021638      -381.5482
   4   2.0000      -9.959995      -271.0253
   5   2.0000      -9.959924      -271.0233
   6   2.0000      -9.956825      -270.9390
   7   2.0000      -9.956757      -270.9371
   8   2.0000      -9.945727      -270.6370
   9   2.0000      -9.945688      -270.6359
  10   2.0000      -9.939076      -270.4560
  11   2.0000      -9.939067      -270.4558
  12   2.0000      -9.935810      -270.3671
  13   2.0000      -9.935783      -270.3664
  14   2.0000      -9.921325      -269.9730
  15   2.0000      -9.920471      -269.9497
  16   2.0000      -9.920307      -269.9453
  17   2.0000      -9.918844      -269.9055
  18   2.0000      -9.918070      -269.8844
  19   2.0000      -9.917185      -269.8603
  20   2.0000      -6.372040      -173.3920
  21   2.0000      -4.593299      -124.9900
  22   2.0000      -4.593043      -124.9831
  23   2.0000      -4.592888      -124.9788
  24   2.0000      -0.870282       -23.6816
  25   2.0000      -0.863231       -23.4897
  26   2.0000      -0.848436       -23.0871
  27   2.0000      -0.769135       -20.9292
  28   2.0000      -0.732972       -19.9452
  29   2.0000      -0.732053       -19.9202
  30   2.0000      -0.702447       -19.1146
  31   2.0000      -0.691586       -18.8190
  32   2.0000      -0.672517       -18.3001
  33   2.0000      -0.666399       -18.1336
  34   2.0000      -0.600166       -16.3314
  35   2.0000      -0.574703       -15.6385
  36   2.0000      -0.573243       -15.5987
  37   2.0000      -0.568421       -15.4675
  38   2.0000      -0.545630       -14.8474
  39   2.0000      -0.538599       -14.6560
  40   2.0000      -0.507323       -13.8050
  41   2.0000      -0.476929       -12.9779
  42   2.0000      -0.467884       -12.7318
  43   2.0000      -0.452485       -12.3127
  44   2.0000      -0.444330       -12.0908
  45   2.0000      -0.441851       -12.0234
  46   2.0000      -0.416133       -11.3236
  47   2.0000      -0.408604       -11.1187
  48   2.0000      -0.403333       -10.9753
  49   2.0000      -0.394258       -10.7283
  50   2.0000      -0.388771       -10.5790
  51   2.0000      -0.383729       -10.4418
  52   2.0000      -0.374163       -10.1815
  53   2.0000      -0.371893       -10.1197
  54   2.0000      -0.370263       -10.0754
  55   2.0000      -0.359663        -9.7869
  56   2.0000      -0.357154        -9.7187
  57   2.0000      -0.346056        -9.4167
  58   2.0000      -0.335281        -9.1234
  59   2.0000      -0.318483        -8.6664
  60   2.0000      -0.313391        -8.5278
  61   2.0000      -0.303315        -8.2536
  62   2.0000      -0.297304        -8.0901
  63   2.0000      -0.275209        -7.4888
  64   2.0000      -0.271945        -7.4000
  65   2.0000      -0.255205        -6.9445
  66   2.0000      -0.250474        -6.8157
  67   2.0000      -0.238440        -6.4883
  68   2.0000      -0.236244        -6.4285
  69   2.0000      -0.231028        -6.2866
  70   2.0000      -0.226818        -6.1720
  71   2.0000      -0.215927        -5.8757
  72   2.0000      -0.204690        -5.5699
  73   0.0000      -0.085303        -2.3212
  74   0.0000      -0.073981        -2.0131
  75   0.0000      -0.068107        -1.8533
  76   0.0000      -0.064080        -1.7437
  77   0.0000      -0.043222        -1.1761

MULLIKEN ATOMIC CHARGES
-----------------------
   0 C :    0.011594
   1 C :   -0.005826
   2 C :    0.003821
   3 C :   -0.159223
   4 C :    0.026325
   5 C :   -0.002327
   6 P :    0.684884
   7 O :   -0.457637
   8 C :   -0.178449
   9 C :    0.020276
  10 C :    0.038459
  11 C :   -0.016822
  12 C :    0.019694
  13 N :   -0.062375
  14 C :   -0.178417
  15 C :    0.020366
  16 C :    0.038289
  17 C :   -0.016670
  18 C :    0.019499
  19 N :   -0.062495
  20 H :    0.005069
  21 H :    0.006142
  22 H :    0.017634
  23 H :    0.026742
  24 H :    0.003297
  25 H :    0.031885
  26 H :    0.022845
  27 H :    0.018768
  28 H :    0.025555
  29 H :    0.031837
  30 H :    0.022886
  31 H :    0.018797
  32 H :    0.025578
Sum of atomic charges:   -0.0000000

LOEWDIN ATOMIC CHARGES
----------------------
   0 C :   -0.022326
   1 C :   -0.033582
   2 C :   -0.020987
   3 C :   -0.186149
   4 C :   -0.014661
   5 C :   -0.032484
   6 P :    0.879712
   7 O :   -0.498344
   8 C :   -0.142289
   9 C :   -0.033433
  10 C :   -0.001874
  11 C :   -0.040959
  12 C :    0.015726
  13 N :   -0.067327
  14 C :   -0.142244
  15 C :   -0.033425
  16 C :   -0.001866
  17 C :   -0.040972
  18 C :    0.015686
  19 N :   -0.067417
  20 H :    0.032806
  21 H :    0.033677
  22 H :    0.036630
  23 H :    0.034136
  24 H :    0.032983
  25 H :    0.043010
  26 H :    0.039695
  27 H :    0.038484
  28 H :    0.028295
  29 H :    0.043002
  30 H :    0.039706
  31 H :    0.038497
  32 H :    0.028296

  Mayer bond orders larger than 0.100000
B(  0-C ,  1-C ) :   1.3849 B(  0-C ,  5-C ) :   1.3747 B(  0-C , 20-H ) :   0.9755
B(  1-C ,  2-C ) :   1.3686 B(  1-C , 21-H ) :   0.9781 B(  2-C ,  3-C ) :   1.3809
B(  2-C , 22-H ) :   0.9722 B(  3-C ,  4-C ) :   1.3677 B(  3-C ,  6-P ) :   0.8928
B(  4-C ,  5-C ) :   1.3790 B(  4-C , 23-H ) :   0.9564 B(  5-C , 24-H ) :   0.9763
B(  6-P ,  7-O ) :   1.8848 B(  6-P ,  8-C ) :   0.8331 B(  6-P , 14-C ) :   0.8331
B(  8-C ,  9-C ) :   1.3716 B(  8-C , 13-N ) :   1.4928 B(  9-C , 10-C ) :   1.3834
B(  9-C , 25-H ) :   0.9559 B( 10-C , 11-C ) :   1.4117 B( 10-C , 26-H ) :   0.9731
B( 11-C , 12-C ) :   1.3668 B( 11-C , 27-H ) :   0.9626 B( 12-C , 13-N ) :   1.5245
B( 12-C , 28-H ) :   0.9633 B( 14-C , 15-C ) :   1.3717 B( 14-C , 19-N ) :   1.4923
B( 15-C , 16-C ) :   1.3833 B( 15-C , 29-H ) :   0.9560 B( 16-C , 17-C ) :   1.4118
B( 16-C , 30-H ) :   0.9731 B( 17-C , 18-C ) :   1.3666 B( 17-C , 31-H ) :   0.9626
B( 18-C , 19-N ) :   1.5246 B( 18-C , 32-H ) :   0.9633

Dispersion correction           -0.078296419
FINAL SINGLE POINT ENERGY     -1143.060546851314

DIPOLE MOMENT
-------------

Method             : SCF
Type of density    : Electron Density
Multiplicity       :   1
Irrep              :   0
Energy             : -1142.9822504321311953 Eh
Relativity type    :
Basis              : AO
                                X                 Y                 Z
Electronic contribution:     -1.995256670       0.189703451      -2.856664054
Nuclear contribution   :      1.313091047      -0.135518973       3.742865449
                        -----------------------------------------
Total Dipole Moment    :     -0.682165623       0.054184478       0.886201395
                        -----------------------------------------
Magnitude (a.u.)       :      1.119660131
Magnitude (Debye)      :      2.845949881

Rotational constants in cm-1:             0.011015             0.010467             0.007205
Rotational constants in MHz :           330.227546           313.780581           216.015426

                             ****ORCA TERMINATED NORMALLY****
TOTAL RUN TIME: 0 days 0 hours 3 minutes 2 seconds 175 msec
