                         Program Version 6.0.0  -   RELEASE   -
|  1> ! RIJCOSX M062X def2-TZVP D3ZERO NormalSCF
|  2> %pal
|  3> nprocs 6
|  4> end
|  5>
|  6> * xyz 0 1
|  7>   C          -1.57037256683028      2.73781183728659     -2.33228087372056
|  8>   C          -1.73375986871660      1.83707527580790     -1.11843106113723
|  9>   O          -1.34523674881880      0.50409346499908     -1.47371109922423
| 10>   Si         -1.85676592309105     -0.91189746223692     -0.76803553412360
| 11>   C          -0.43969250449351     -2.01319400689560     -0.19837911965433
| 12>   C           0.44437159141746     -1.62720446290064      0.99600648616992
| 13>   P           1.13902236861076      0.08062163535387      0.98080847357808
| 14>   O           0.14466752621424      1.18448765150269      1.32849857755006
| 15>   C           2.50509066147035      0.02935271182651      2.20435035907534
| 16>   C           3.63194078405724     -0.80795312393611      2.07617503605588
| 17>   C           4.63073194015250     -0.79406310424154      3.06142899162886
| 18>   C           4.50971258023782      0.05734532922999      4.17443902773565
| 19>   C           3.39118124487887      0.89821641654113      4.29930308066730
| 20>   C           2.38897463564596      0.88696051921276      3.31565257636774
| 21>   C           1.92557184133062      0.31709550755473     -0.65072986816804
| 22>   C           1.87477748452939      1.61220235691764     -1.20119768979063
| 23>   C           2.46185463833522      1.86745924240405     -2.44895473643467
| 24>   C           3.09701023149345      0.83090117851779     -3.15422624677235
| 25>   C           3.14850093580826     -0.46289741894089     -2.60853286818665
| 26>   C           2.56491935155056     -0.72122272745538     -1.35806117367338
| 27>   O          -2.53838534438473     -1.85231535956462     -1.97322002580283
| 28>   C          -3.40686509396487     -1.33576903032584     -2.97811503013769
| 29>   C          -4.81281456580691     -1.06201943342633     -2.44936349013478
| 30>   O          -2.98923097301901     -0.53633013449276      0.39972136627977
| 31>   C          -3.06025571777297     -0.96854785127097      1.75327163774529
| 32>   C          -2.72210690107376      0.17020383681570      2.70702649776211
| 33>   H          -2.22844289531566      2.41271663377477     -3.16436440989469
| 34>   H          -1.82474282858569      3.78695959833857     -2.07583102326619
| 35>   H          -0.52407913943403      2.70991615347292     -2.69841563471820
| 36>   H          -2.78568072892272      1.84563757644950     -0.75669957057431
| 37>   H          -1.09843526190402      2.16827428159082     -0.27017470297437
| 38>   H           0.18129220164553     -2.12888339406793     -1.11238440971784
| 39>   H          -0.88158612805149     -3.01778944081122     -0.02157410044219
| 40>   H           1.29678651197714     -2.33138238668096      1.11238485129505
| 41>   H          -0.11113433258602     -1.66488076964294      1.95738317917970
| 42>   H           3.74287089942851     -1.46406551493016      1.19881409838370
| 43>   H           5.51114342086058     -1.44687732175348      2.95901976601700
| 44>   H           5.29553994063507      0.06746415399603      4.94535294386429
| 45>   H           3.29965600324811      1.56930506308167      5.16721081938875
| 46>   H           1.50598384102450      1.54143146203505      3.38143124021142
| 47>   H           1.35733553939025      2.40541698429420     -0.64130183025549
| 48>   H           2.41825232213354      2.88020123346787     -2.87807809781258
| 49>   H           3.55108783904708      1.03067038224905     -4.13684919373011
| 50>   H           3.63988030457482     -1.27714272506554     -3.16264650014983
| 51>   H           2.60162335320020     -1.74149156013475     -0.94547974403201
| 52>   H          -3.44321001035133     -2.09158610440976     -3.79292997617640
| 53>   H          -2.97171313918303     -0.40591403315805     -3.41309386829824
| 54>   H          -4.79431326560430     -0.29091374828352     -1.65266931255097
| 55>   H          -5.25195233836803     -1.98279786100226     -2.01436236969254
| 56>   H          -5.47712575834781     -0.70844094454820     -3.26527130752541
| 57>   H          -2.37780328469429     -1.83461241844518      1.92841901490750
| 58>   H          -4.09181772203398     -1.34538795824694      1.93542111870109
| 59>   H          -3.43411228840798      1.00909993113123      2.56907478287223
| 60>   H          -1.70144833796328      0.55431173341489      2.50211553468902
| 61>   H          -2.78669332517190     -0.16965385439853      3.76205340864665
| 62> **                         ****END OF INPUT****

CARTESIAN COORDINATES (ANGSTROEM)
---------------------------------
  C     -1.570373    2.737812   -2.332281
  C     -1.733760    1.837075   -1.118431
  O     -1.345237    0.504093   -1.473711
  Si    -1.856766   -0.911897   -0.768036
  C     -0.439693   -2.013194   -0.198379
  C      0.444372   -1.627204    0.996006
  P      1.139022    0.080622    0.980808
  O      0.144668    1.184488    1.328499
  C      2.505091    0.029353    2.204350
  C      3.631941   -0.807953    2.076175
  C      4.630732   -0.794063    3.061429
  C      4.509713    0.057345    4.174439
  C      3.391181    0.898216    4.299303
  C      2.388975    0.886961    3.315653
  C      1.925572    0.317096   -0.650730
  C      1.874777    1.612202   -1.201198
  C      2.461855    1.867459   -2.448955
  C      3.097010    0.830901   -3.154226
  C      3.148501   -0.462897   -2.608533
  C      2.564919   -0.721223   -1.358061
  O     -2.538385   -1.852315   -1.973220
  C     -3.406865   -1.335769   -2.978115
  C     -4.812815   -1.062019   -2.449363
  O     -2.989231   -0.536330    0.399721
  C     -3.060256   -0.968548    1.753272
  C     -2.722107    0.170204    2.707026
  H     -2.228443    2.412717   -3.164364
  H     -1.824743    3.786960   -2.075831
  H     -0.524079    2.709916   -2.698416
  H     -2.785681    1.845638   -0.756700
  H     -1.098435    2.168274   -0.270175
  H      0.181292   -2.128883   -1.112384
  H     -0.881586   -3.017789   -0.021574
  H      1.296787   -2.331382    1.112385
  H     -0.111134   -1.664881    1.957383
  H      3.742871   -1.464066    1.198814
  H      5.511143   -1.446877    2.959020
  H      5.295540    0.067464    4.945353
  H      3.299656    1.569305    5.167211
  H      1.505984    1.541431    3.381431
  H      1.357336    2.405417   -0.641302
  H      2.418252    2.880201   -2.878078
  H      3.551088    1.030670   -4.136849
  H      3.639880   -1.277143   -3.162647
  H      2.601623   -1.741492   -0.945480
  H     -3.443210   -2.091586   -3.792930
  H     -2.971713   -0.405914   -3.413094
  H     -4.794313   -0.290914   -1.652669
  H     -5.251952   -1.982798   -2.014362
  H     -5.477126   -0.708441   -3.265271
  H     -2.377803   -1.834612    1.928419
  H     -4.091818   -1.345388    1.935421
  H     -3.434112    1.009100    2.569075
  H     -1.701448    0.554312    2.502116
  H     -2.786693   -0.169654    3.762053

 Total Charge           Charge          ....    0
 Multiplicity           Mult            ....    1
 Number of Electrons    NEL             ....  210
 Basis Dimension        Dim             ....  992

ORBITAL ENERGIES
----------------

  NO   OCC          E(Eh)            E(eV)
   0   2.0000     -78.099560     -2125.1971
   1   2.0000     -67.042673     -1824.3239
   2   2.0000     -19.609661      -533.6060
   3   2.0000     -19.604108      -533.4549
   4   2.0000     -19.603518      -533.4388
   5   2.0000     -19.573225      -532.6145
   6   2.0000     -10.585728      -288.0523
   7   2.0000     -10.577474      -287.8277
   8   2.0000     -10.567292      -287.5506
   9   2.0000     -10.567182      -287.5476
  10   2.0000     -10.566076      -287.5176
  11   2.0000     -10.562442      -287.4187
  12   2.0000     -10.561619      -287.3963
  13   2.0000     -10.561604      -287.3959
  14   2.0000     -10.561168      -287.3840
  15   2.0000     -10.560980      -287.3789
  16   2.0000     -10.560459      -287.3647
  17   2.0000     -10.560111      -287.3552
  18   2.0000     -10.558680      -287.3163
  19   2.0000     -10.558616      -287.3145
  20   2.0000     -10.557786      -287.2920
  21   2.0000     -10.557240      -287.2771
  22   2.0000     -10.535483      -286.6851
  23   2.0000     -10.518878      -286.2332
  24   2.0000     -10.516737      -286.1750
  25   2.0000     -10.512086      -286.0484
  26   2.0000      -6.906058      -187.9234
  27   2.0000      -5.571290      -151.6025
  28   2.0000      -5.023159      -136.6871
  29   2.0000      -5.022963      -136.6818
  30   2.0000      -5.021531      -136.6428
  31   2.0000      -3.883677      -105.6802
  32   2.0000      -3.883162      -105.6662
  33   2.0000      -3.881984      -105.6341
  34   2.0000      -1.130269       -30.7562
  35   2.0000      -1.106984       -30.1226
  36   2.0000      -1.100303       -29.9408
  37   2.0000      -1.068758       -29.0824
  38   2.0000      -0.967364       -26.3233
  39   2.0000      -0.964105       -26.2346
  40   2.0000      -0.882724       -24.0201
  41   2.0000      -0.854033       -23.2394
  42   2.0000      -0.850950       -23.1555
  43   2.0000      -0.850020       -23.1302
  44   2.0000      -0.847352       -23.0576
  45   2.0000      -0.832431       -22.6516
  46   2.0000      -0.826148       -22.4806
  47   2.0000      -0.823330       -22.4039
  48   2.0000      -0.748488       -20.3674
  49   2.0000      -0.708643       -19.2831
  50   2.0000      -0.698997       -19.0207
  51   2.0000      -0.695515       -18.9259
  52   2.0000      -0.693222       -18.8635
  53   2.0000      -0.687217       -18.7001
  54   2.0000      -0.683490       -18.5987
  55   2.0000      -0.681599       -18.5473
  56   2.0000      -0.633971       -17.2512
  57   2.0000      -0.601393       -16.3647
  58   2.0000      -0.595211       -16.1965
  59   2.0000      -0.581932       -15.8352
  60   2.0000      -0.559278       -15.2187
  61   2.0000      -0.546988       -14.8843
  62   2.0000      -0.540952       -14.7200
  63   2.0000      -0.535210       -14.5638
  64   2.0000      -0.533196       -14.5090
  65   2.0000      -0.528372       -14.3777
  66   2.0000      -0.526279       -14.3208
  67   2.0000      -0.521693       -14.1960
  68   2.0000      -0.519534       -14.1372
  69   2.0000      -0.512110       -13.9352
  70   2.0000      -0.505026       -13.7425
  71   2.0000      -0.496488       -13.5101
  72   2.0000      -0.494886       -13.4665
  73   2.0000      -0.486144       -13.2286
  74   2.0000      -0.482788       -13.1373
  75   2.0000      -0.480760       -13.0822
  76   2.0000      -0.465578       -12.6690
  77   2.0000      -0.461962       -12.5706
  78   2.0000      -0.454355       -12.3636
  79   2.0000      -0.446408       -12.1474
  80   2.0000      -0.445049       -12.1104
  81   2.0000      -0.442028       -12.0282
  82   2.0000      -0.435737       -11.8570
  83   2.0000      -0.432545       -11.7701
  84   2.0000      -0.427640       -11.6367
  85   2.0000      -0.427042       -11.6204
  86   2.0000      -0.423534       -11.5250
  87   2.0000      -0.418035       -11.3753
  88   2.0000      -0.412222       -11.2171
  89   2.0000      -0.410686       -11.1753
  90   2.0000      -0.408280       -11.1099
  91   2.0000      -0.401623       -10.9287
  92   2.0000      -0.388165       -10.5625
  93   2.0000      -0.370295       -10.0762
  94   2.0000      -0.365855        -9.9554
  95   2.0000      -0.358729        -9.7615
  96   2.0000      -0.351028        -9.5520
  97   2.0000      -0.346438        -9.4271
  98   2.0000      -0.338390        -9.2081
  99   2.0000      -0.334041        -9.0897
 100   2.0000      -0.328922        -8.9504
 101   2.0000      -0.320010        -8.7079
 102   2.0000      -0.319000        -8.6804
 103   2.0000      -0.316336        -8.6079
 104   2.0000      -0.310533        -8.4500
 105   0.0000      -0.017687        -0.4813
 106   0.0000      -0.000968        -0.0263
 107   0.0000       0.007059         0.1921
 108   0.0000       0.010559         0.2873
 109   0.0000       0.046976         1.2783

MULLIKEN ATOMIC CHARGES
-----------------------
   0 C :   -0.380510
   1 C :   -0.154260
   2 O :   -0.360887
   3 Si:    0.667409
   4 C :   -0.444861
   5 C :   -0.428540
   6 P :    0.597394
   7 O :   -0.647355
   8 C :    0.017222
   9 C :   -0.201916
  10 C :   -0.163810
  11 C :   -0.137051
  12 C :   -0.138524
  13 C :   -0.154517
  14 C :    0.064180
  15 C :   -0.205344
  16 C :   -0.130756
  17 C :   -0.132614
  18 C :   -0.154994
  19 C :   -0.244467
  20 O :   -0.380027
  21 C :   -0.116508
  22 C :   -0.412596
  23 O :   -0.342645
  24 C :   -0.112972
  25 C :   -0.403832
  26 H :    0.131009
  27 H :    0.135302
  28 H :    0.124014
  29 H :    0.139825
  30 H :    0.180106
  31 H :    0.184937
  32 H :    0.193061
  33 H :    0.200325
  34 H :    0.195565
  35 H :    0.161092
  36 H :    0.146958
  37 H :    0.148817
  38 H :    0.149983
  39 H :    0.196483
  40 H :    0.206038
  41 H :    0.157337
  42 H :    0.149008
  43 H :    0.147710
  44 H :    0.191435
  45 H :    0.123976
  46 H :    0.134491
  47 H :    0.151163
  48 H :    0.139384
  49 H :    0.133339
  50 H :    0.118246
  51 H :    0.130865
  52 H :    0.138610
  53 H :    0.165352
  54 H :    0.128352
Sum of atomic charges:   -0.0000000

LOEWDIN ATOMIC CHARGES
----------------------
   0 C :   -0.325791
   1 C :   -0.357358
   2 O :    0.095609
   3 Si:   -0.034386
   4 C :   -0.369163
   5 C :   -0.379612
   6 P :    0.658840
   7 O :   -0.307729
   8 C :   -0.230424
   9 C :   -0.134230
  10 C :   -0.140160
  11 C :   -0.132138
  12 C :   -0.136405
  13 C :   -0.118351
  14 C :   -0.227419
  15 C :   -0.113481
  16 C :   -0.135624
  17 C :   -0.128389
  18 C :   -0.138380
  19 C :   -0.140963
  20 O :    0.080033
  21 C :   -0.358218
  22 C :   -0.326555
  23 O :    0.094446
  24 C :   -0.357157
  25 C :   -0.329786
  26 H :    0.119861
  27 H :    0.124761
  28 H :    0.121520
  29 H :    0.124204
  30 H :    0.130548
  31 H :    0.161084
  32 H :    0.159627
  33 H :    0.143928
  34 H :    0.151698
  35 H :    0.148152
  36 H :    0.148754
  37 H :    0.148783
  38 H :    0.149518
  39 H :    0.160939
  40 H :    0.161079
  41 H :    0.150080
  42 H :    0.149169
  43 H :    0.149017
  44 H :    0.148194
  45 H :    0.124027
  46 H :    0.123741
  47 H :    0.125262
  48 H :    0.124337
  49 H :    0.123845
  50 H :    0.118220
  51 H :    0.124097
  52 H :    0.124675
  53 H :    0.131110
  54 H :    0.122560

  Mayer bond orders larger than 0.100000
B(  0-C ,  1-C ) :   0.9473 B(  0-C , 26-H ) :   0.9715 B(  0-C , 27-H ) :   0.9770
B(  0-C , 28-H ) :   0.9723 B(  1-C ,  2-O ) :   0.8229 B(  1-C , 29-H ) :   0.9675
B(  1-C , 30-H ) :   0.9666 B(  2-O ,  3-Si) :   1.1489 B(  3-Si,  4-C ) :   0.9705
B(  3-Si, 20-O ) :   1.1917 B(  3-Si, 23-O ) :   1.1397 B(  4-C ,  5-C ) :   0.8714
B(  4-C , 31-H ) :   0.9480 B(  4-C , 32-H ) :   0.9431 B(  5-C ,  6-P ) :   0.9270
B(  5-C , 33-H ) :   0.9510 B(  5-C , 34-H ) :   0.9352 B(  6-P ,  7-O ) :   1.7524
B(  6-P ,  8-C ) :   0.9304 B(  6-P , 14-C ) :   0.9522 B(  8-C ,  9-C ) :   1.3493
B(  8-C , 13-C ) :   1.4052 B(  9-C , 10-C ) :   1.5149 B(  9-C , 35-H ) :   0.9059
B( 10-C , 11-C ) :   1.4344 B( 10-C , 36-H ) :   0.9439 B( 11-C , 12-C ) :   1.4418
B( 11-C , 37-H ) :   0.9461 B( 12-C , 13-C ) :   1.4304 B( 12-C , 38-H ) :   0.9470
B( 13-C , 39-H ) :   0.9068 B( 14-C , 15-C ) :   1.3861 B( 14-C , 19-C ) :   1.3098
B( 15-C , 16-C ) :   1.4404 B( 15-C , 40-H ) :   0.9107 B( 16-C , 17-C ) :   1.4433
B( 16-C , 41-H ) :   0.9463 B( 17-C , 18-C ) :   1.4491 B( 17-C , 42-H ) :   0.9451
B( 18-C , 19-C ) :   1.5064 B( 18-C , 43-H ) :   0.9397 B( 19-C , 44-H ) :   0.9230
B( 20-O , 21-C ) :   0.9184 B( 21-C , 22-C ) :   0.9448 B( 21-C , 45-H ) :   0.9688
B( 21-C , 46-H ) :   0.9902 B( 22-C , 47-H ) :   0.9586 B( 22-C , 48-H ) :   0.9693
B( 22-C , 49-H ) :   0.9681 B( 23-O , 24-C ) :   0.8914 B( 24-C , 25-C ) :   0.9436
B( 24-C , 50-H ) :   0.9858 B( 24-C , 51-H ) :   0.9670 B( 25-C , 52-H ) :   0.9718
B( 25-C , 53-H ) :   0.9489 B( 25-C , 54-H ) :   0.9680

Dispersion correction           -0.005111220
FINAL SINGLE POINT ENERGY     -1711.463734007238

DIPOLE MOMENT
-------------

Method             : SCF
Type of density    : Electron Density
Multiplicity       :   1
Irrep              :   0
Energy             : -1711.4586227869658615 Eh
Relativity type    :
Basis              : AO
                                X                 Y                 Z
Electronic contribution:     19.014015820      -1.754323183       5.283764683
Nuclear contribution   :    -17.735727188       1.170405635      -5.147238632
                        -----------------------------------------
Total Dipole Moment    :      1.278288632      -0.583917549       0.136526051
                        -----------------------------------------
Magnitude (a.u.)       :      1.411956406
Magnitude (Debye)      :      3.588907969

Rotational constants in cm-1:             0.008714             0.004344             0.003559
Rotational constants in MHz :           261.254091           130.219108           106.693109

                             ****ORCA TERMINATED NORMALLY****
TOTAL RUN TIME: 0 days 0 hours 4 minutes 10 seconds 21 msec
