                         Program Version 6.0.0  -   RELEASE   -
|  1> ! RI BP86 def2-SVP D3BJ TIGHTSCF Opt
|  2> %pal
|  3> nprocs 6
|  4> end
|  5>
|  6> * xyz 0 1
|  7> C      5.494024   -0.323408    0.783766
|  8> N      4.534194    0.110794   -0.230196
|  9> C      5.033850    1.102034   -1.182565
| 10> C      3.168862    0.112506    0.083372
| 11> C      2.661030   -0.512989    1.234582
| 12> C      1.291896   -0.527337    1.537574
| 13> C      0.361655    0.075683    0.688001
| 14> C      0.838856    0.693604   -0.468201
| 15> C      2.211705    0.703129   -0.760672
| 16> P     -1.386589    0.002231    1.113310
| 17> O     -1.585302    0.142079    2.614225
| 18> C     -2.235040    1.324898    0.226661
| 19> C     -2.833339    1.131591   -1.027111
| 20> C     -3.466237    2.190632   -1.681107
| 21> C     -3.509122    3.452177   -1.090622
| 22> C     -2.921979    3.657716    0.155649
| 23> C     -2.289629    2.600592    0.810243
| 24> C     -2.042480   -1.571549    0.523238
| 25> C     -1.423868   -2.317035   -0.491020
| 26> C     -1.979316   -3.523166   -0.923061
| 27> C     -3.156300   -3.997662   -0.347264
| 28> C     -3.779329   -3.269634    0.663635
| 29> C     -3.225351   -2.064851    1.096613
| 30> H      5.461024    0.329227    1.663135
| 31> H      6.517784   -0.302596    0.393174
| 32> H      5.311308   -1.360334    1.085770
| 33> H      4.807207    2.120431   -0.847802
| 34> H      6.120997    1.028442   -1.299902
| 35> H      4.613749    0.939771   -2.180798
| 36> H      3.319609   -1.009548    1.940639
| 37> H      0.951765   -1.016300    2.449570
| 38> H      0.158000    1.174454   -1.165700
| 39> H      2.509410    1.188351   -1.685455
| 40> H     -2.815593    0.156672   -1.507667
| 41> H     -3.930106    2.030313   -2.651323
| 42> H     -4.005026    4.274704   -1.599635
| 43> H     -2.959441    4.639400    0.621054
| 44> H     -1.838248    2.765177    1.787925
| 45> H     -0.502987   -1.971365   -0.954151
| 46> H     -1.490119   -4.095872   -1.707269
| 47> H     -3.585217   -4.938494   -0.682537
| 48> H     -4.693863   -3.641064    1.118993
| 49> H     -3.712447   -1.503404    1.892934
| 50> **                         ****END OF INPUT****
 Total Charge           Charge          ....    0
 Multiplicity           Mult            ....    1
 Number of Electrons    NEL             ....  170
Dispersion correction           -0.099230587
FINAL SINGLE POINT ENERGY     -1244.886602714264
Dispersion correction             ... done (  0.1 sec)
Dispersion correction           -0.099235750
FINAL SINGLE POINT ENERGY     -1244.894533051290
Dispersion correction             ... done (  0.1 sec)
Dispersion correction           -0.099305885
FINAL SINGLE POINT ENERGY     -1244.896302554736
Dispersion correction             ... done (  0.1 sec)
FINAL SINGLE POINT ENERGY     -1244.896766582656
FINAL SINGLE POINT ENERGY     -1244.896925792684
FINAL SINGLE POINT ENERGY     -1244.897001038682
FINAL SINGLE POINT ENERGY     -1244.897065195029
FINAL SINGLE POINT ENERGY     -1244.897127590322
FINAL SINGLE POINT ENERGY     -1244.897172940360
FINAL SINGLE POINT ENERGY     -1244.897200648729
FINAL SINGLE POINT ENERGY     -1244.897215761064
FINAL SINGLE POINT ENERGY     -1244.897222282694
FINAL SINGLE POINT ENERGY     -1244.897225706124
FINAL SINGLE POINT ENERGY     -1244.897228302381
FINAL SINGLE POINT ENERGY     -1244.897230638029
Dispersion correction             ... done (  0.1 sec)
Dispersion correction           -0.099087181
FINAL SINGLE POINT ENERGY     -1244.897232436424
Dispersion correction             ... done (  0.1 sec)
Dispersion correction           -0.099091254
FINAL SINGLE POINT ENERGY     -1244.897233298407
Dispersion correction             ... done (  0.1 sec)
                    ***********************HURRAY********************

CARTESIAN COORDINATES (ANGSTROEM)
---------------------------------
  C      5.465047   -0.221467    0.872664
  N      4.501828    0.214002   -0.121646
  C      4.960416    0.715440   -1.403450
  C      3.150522    0.191481    0.168200
  C      2.672858   -0.267428    1.431944
  C      1.306348   -0.295398    1.715065
  C      0.356126    0.125814    0.760933
  C      0.818157    0.603716   -0.482413
  C      2.183381    0.636345   -0.780921
  P     -1.397295    0.012762    1.226332
  O     -1.642315    0.107342    2.723931
  C     -2.243330    1.335235    0.276555
  C     -2.659992    1.192156   -1.061854
  C     -3.278667    2.266871   -1.722006
  C     -3.490752    3.480399   -1.045751
  C     -3.091779    3.617910    0.295599
  C     -2.471986    2.547713    0.958346
  C     -2.018756   -1.555418    0.504544
  C     -1.457999   -2.155563   -0.640248
  C     -2.004481   -3.347169   -1.145179
  C     -3.102434   -3.945287   -0.503360
  C     -3.650884   -3.356562    0.649890
  C     -3.109753   -2.165162    1.156426
  H      5.432781    0.402559    1.795163
  H      6.483761   -0.148803    0.450629
  H      5.299074   -1.279153    1.177982
  H      4.682947    1.782705   -1.563342
  H      6.061896    0.641371   -1.452610
  H      4.542978    0.130106   -2.253862
  H      3.378799   -0.597993    2.204544
  H      0.952366   -0.634795    2.701045
  H      0.100170    0.975107   -1.230258
  H      2.500395    1.022777   -1.757934
  H     -2.518384    0.233434   -1.584744
  H     -3.605773    2.152766   -2.767102
  H     -3.979303    4.320136   -1.563803
  H     -3.271220    4.563873    0.829689
  H     -2.169532    2.626116    2.014280
  H     -0.581518   -1.699093   -1.126240
  H     -1.564955   -3.816851   -2.038777
  H     -3.526852   -4.881339   -0.898246
  H     -4.501855   -3.833335    1.160633
  H     -3.510034   -1.697321    2.069353

 Multiplicity           Mult            ....    1
 Number of Electrons    NEL             ....  170
 Basis Dimension        Dim             ....  426

ORBITAL ENERGIES
----------------

  NO   OCC          E(Eh)            E(eV)
   0   2.0000     -76.405120     -2079.0890
   1   2.0000     -18.707062      -509.0450
   2   2.0000     -14.048647      -382.2831
   3   2.0000      -9.960473      -271.0383
   4   2.0000      -9.959763      -271.0189
   5   2.0000      -9.958994      -270.9980
   6   2.0000      -9.925765      -270.0938
   7   2.0000      -9.925262      -270.0801
   8   2.0000      -9.924182      -270.0507
   9   2.0000      -9.924088      -270.0482
  10   2.0000      -9.923589      -270.0346
  11   2.0000      -9.923455      -270.0309
  12   2.0000      -9.922536      -270.0059
  13   2.0000      -9.921851      -269.9873
  14   2.0000      -9.921707      -269.9834
  15   2.0000      -9.921058      -269.9657
  16   2.0000      -9.920915      -269.9618
  17   2.0000      -9.919809      -269.9317
  18   2.0000      -9.919396      -269.9205
  19   2.0000      -9.917838      -269.8781
  20   2.0000      -9.915742      -269.8211
  21   2.0000      -9.913956      -269.7725
  22   2.0000      -9.908088      -269.6128
  23   2.0000      -6.362994      -173.1459
  24   2.0000      -4.584312      -124.7455
  25   2.0000      -4.584145      -124.7409
  26   2.0000      -4.583979      -124.7364
  27   2.0000      -0.874211       -23.7885
  28   2.0000      -0.840635       -22.8748
  29   2.0000      -0.773447       -21.0466
  30   2.0000      -0.770888       -20.9769
  31   2.0000      -0.762952       -20.7610
  32   2.0000      -0.690167       -18.7804
  33   2.0000      -0.678778       -18.4705
  34   2.0000      -0.673063       -18.3150
  35   2.0000      -0.670905       -18.2563
  36   2.0000      -0.669838       -18.2272
  37   2.0000      -0.667721       -18.1696
  38   2.0000      -0.655259       -17.8305
  39   2.0000      -0.607087       -16.5197
  40   2.0000      -0.567382       -15.4393
  41   2.0000      -0.544849       -14.8261
  42   2.0000      -0.543041       -14.7769
  43   2.0000      -0.541143       -14.7253
  44   2.0000      -0.533562       -14.5190
  45   2.0000      -0.520846       -14.1729
  46   2.0000      -0.496485       -13.5100
  47   2.0000      -0.481605       -13.1051
  48   2.0000      -0.466748       -12.7009
  49   2.0000      -0.452283       -12.3072
  50   2.0000      -0.444843       -12.1048
  51   2.0000      -0.425843       -11.5878
  52   2.0000      -0.415440       -11.3047
  53   2.0000      -0.408897       -11.1266
  54   2.0000      -0.402688       -10.9577
  55   2.0000      -0.401314       -10.9203
  56   2.0000      -0.399933       -10.8827
  57   2.0000      -0.390147       -10.6165
  58   2.0000      -0.385831       -10.4990
  59   2.0000      -0.377667       -10.2768
  60   2.0000      -0.376273       -10.2389
  61   2.0000      -0.375222       -10.2103
  62   2.0000      -0.371529       -10.1098
  63   2.0000      -0.370907       -10.0929
  64   2.0000      -0.362990        -9.8775
  65   2.0000      -0.346589        -9.4312
  66   2.0000      -0.341268        -9.2864
  67   2.0000      -0.333134        -9.0650
  68   2.0000      -0.332550        -9.0491
  69   2.0000      -0.329239        -8.9590
  70   2.0000      -0.310196        -8.4409
  71   2.0000      -0.306930        -8.3520
  72   2.0000      -0.303300        -8.2532
  73   2.0000      -0.300537        -8.1780
  74   2.0000      -0.297331        -8.0908
  75   2.0000      -0.289552        -7.8791
  76   2.0000      -0.261581        -7.1180
  77   2.0000      -0.240437        -6.5426
  78   2.0000      -0.234240        -6.3740
  79   2.0000      -0.233828        -6.3628
  80   2.0000      -0.230385        -6.2691
  81   2.0000      -0.229229        -6.2376
  82   2.0000      -0.208961        -5.6861
  83   2.0000      -0.208014        -5.6604
  84   2.0000      -0.177662        -4.8344
  85   0.0000      -0.059944        -1.6312
  86   0.0000      -0.055137        -1.5004
  87   0.0000      -0.048674        -1.3245
  88   0.0000      -0.043810        -1.1921
  89   0.0000      -0.039592        -1.0773

MULLIKEN ATOMIC CHARGES
-----------------------
   0 C :    0.061731
   1 N :   -0.276889
   2 C :    0.063103
   3 C :    0.187513
   4 C :   -0.068768
   5 C :   -0.006627
   6 C :   -0.115825
   7 C :   -0.018892
   8 C :   -0.071089
   9 P :    0.632305
  10 O :   -0.461273
  11 C :   -0.128722
  12 C :   -0.006746
  13 C :   -0.001503
  14 C :    0.007934
  15 C :    0.000245
  16 C :    0.012560
  17 C :   -0.128657
  18 C :   -0.008080
  19 C :   -0.000704
  20 C :    0.007906
  21 C :    0.000386
  22 C :    0.011819
  23 H :    0.046322
  24 H :    0.037638
  25 H :    0.046989
  26 H :    0.045030
  27 H :    0.038181
  28 H :    0.044630
  29 H :   -0.019237
  30 H :    0.013853
  31 H :   -0.002835
  32 H :   -0.025213
  33 H :    0.004556
  34 H :    0.002584
  35 H :    0.006145
  36 H :    0.008063
  37 H :    0.019879
  38 H :    0.005664
  39 H :    0.002043
  40 H :    0.006117
  41 H :    0.008179
  42 H :    0.019685
Sum of atomic charges:   -0.0000000

LOEWDIN ATOMIC CHARGES
----------------------
   0 C :    0.011543
   1 N :   -0.039950
   2 C :    0.011269
   3 C :    0.026048
   4 C :   -0.072023
   5 C :   -0.008832
   6 C :   -0.220118
   7 C :   -0.028859
   8 C :   -0.076130
   9 P :    0.885707
  10 O :   -0.494842
  11 C :   -0.180010
  12 C :   -0.036328
  13 C :   -0.031883
  14 C :   -0.024257
  15 C :   -0.028080
  16 C :   -0.015222
  17 C :   -0.181113
  18 C :   -0.035962
  19 C :   -0.032289
  20 C :   -0.024203
  21 C :   -0.028036
  22 C :   -0.015518
  23 H :    0.026268
  24 H :    0.031880
  25 H :    0.027241
  26 H :    0.025693
  27 H :    0.032064
  28 H :    0.026116
  29 H :    0.030025
  30 H :    0.037600
  31 H :    0.031452
  32 H :    0.028514
  33 H :    0.031898
  34 H :    0.033114
  35 H :    0.033445
  36 H :    0.034593
  37 H :    0.037907
  38 H :    0.032572
  39 H :    0.032857
  40 H :    0.033406
  41 H :    0.034618
  42 H :    0.037826

  Mayer bond orders larger than 0.100000
B(  0-C ,  1-N ) :   1.0247 B(  0-C , 23-H ) :   0.9544 B(  0-C , 24-H ) :   0.9618
B(  0-C , 25-H ) :   0.9544 B(  1-N ,  2-C ) :   1.0266 B(  1-N ,  3-C ) :   1.1752
B(  2-C , 26-H ) :   0.9539 B(  2-C , 27-H ) :   0.9619 B(  2-C , 28-H ) :   0.9539
B(  3-C ,  4-C ) :   1.2777 B(  3-C ,  8-C ) :   1.2782 B(  4-C ,  5-C ) :   1.3947
B(  4-C , 29-H ) :   0.9762 B(  5-C ,  6-C ) :   1.3431 B(  5-C , 30-H ) :   0.9696
B(  6-C ,  7-C ) :   1.3309 B(  6-C ,  9-P ) :   0.9015 B(  7-C ,  8-C ) :   1.4063
B(  7-C , 31-H ) :   0.9608 B(  8-C , 32-H ) :   0.9731 B(  9-P , 10-O ) :   1.8725
B(  9-P , 11-C ) :   0.8751 B(  9-P , 17-C ) :   0.8731 B( 11-C , 12-C ) :   1.3684
B( 11-C , 16-C ) :   1.3817 B( 12-C , 13-C ) :   1.3879 B( 12-C , 33-H ) :   0.9648
B( 13-C , 14-C ) :   1.3820 B( 13-C , 34-H ) :   0.9751 B( 14-C , 15-C ) :   1.3770
B( 14-C , 35-H ) :   0.9758 B( 15-C , 16-C ) :   1.3760 B( 15-C , 36-H ) :   0.9776
B( 16-C , 37-H ) :   0.9712 B( 17-C , 18-C ) :   1.3694 B( 17-C , 22-C ) :   1.3802
B( 18-C , 19-C ) :   1.3851 B( 18-C , 38-H ) :   0.9652 B( 19-C , 20-C ) :   1.3817
B( 19-C , 39-H ) :   0.9753 B( 20-C , 21-C ) :   1.3772 B( 20-C , 40-H ) :   0.9757
B( 21-C , 22-C ) :   1.3757 B( 21-C , 41-H ) :   0.9776 B( 22-C , 42-H ) :   0.9719

Dispersion correction           -0.099094163
FINAL SINGLE POINT ENERGY     -1244.897233547923

DIPOLE MOMENT
-------------

Method             : SCF
Type of density    : Electron Density
Multiplicity       :   1
Irrep              :   0
Energy             : -1244.7981393852467136 Eh
Relativity type    :
Basis              : AO
                                X                 Y                 Z
Electronic contribution:    -16.873646992      -0.373832548       7.254520227
Nuclear contribution   :     18.414712116       0.336981711      -8.886801267
                        -----------------------------------------
Total Dipole Moment    :      1.541065124      -0.036850837      -1.632281040
                        -----------------------------------------
Magnitude (a.u.)       :      2.245123848
Magnitude (Debye)      :      5.706651307

Rotational constants in cm-1:             0.010184             0.005375             0.004297
Rotational constants in MHz :           305.314924           161.125566           128.828938

                             ****ORCA TERMINATED NORMALLY****
TOTAL RUN TIME: 0 days 0 hours 6 minutes 9 seconds 793 msec
