                         Program Version 6.0.0  -   RELEASE   -
|  1> ! RIJCOSX M062X def2-TZVP D3ZERO NormalSCF
|  2> %pal
|  3> nprocs 6
|  4> end
|  5>
|  6> * xyz 0 1
|  7>   C          -1.52642918365407      5.02859629400766     -1.16367290104739
|  8>   C          -0.60790351123165      4.13854412999273     -0.32137673476879
|  9>   C          -0.79735042007363      2.64250611260164     -0.60333437744731
| 10>   C           0.12742924596335      1.74159159674681      0.22489776218057
| 11>   P           0.00211177683330     -0.02560246919904     -0.29491866244650
| 12>   O           0.01130281398233     -0.21049769208428     -1.80539121926812
| 13>   C           1.39690003495540     -0.88770811494129      0.55374734650038
| 14>   C           2.72969936038486     -0.66003558611803     -0.17061037080765
| 15>   C           3.88354814891063     -1.49863408606263      0.39432061878382
| 16>   C           5.20804883309113     -1.26731743120316     -0.33885439045758
| 17>   C          -1.53163304033428     -0.66569452066494      0.50929054953913
| 18>   C          -1.92609547638976     -2.04375239295974     -0.03714440525983
| 19>   C          -3.28480012977880     -2.53815218059671      0.47577207577517
| 20>   C          -3.67496049026609     -3.90921327988155     -0.08401172581912
| 21>   H          -1.36498504070241      6.10473851531979     -0.95010501031316
| 22>   H          -2.59611573723391      4.80480819178442     -0.96673431168503
| 23>   H          -1.35211654009175      4.87075484794452     -2.24857998631217
| 24>   H          -0.78042260952733      4.33482597050316      0.76088887166281
| 25>   H           0.45514208227246      4.41042017413090     -0.50921390314897
| 26>   H          -1.85943690059377      2.36605877671972     -0.41583785837258
| 27>   H          -0.61837910993117      2.42631888167472     -1.67853899441852
| 28>   H           1.18765353206854      2.03929069580886      0.07238375504060
| 29>   H          -0.07682502871082      1.81930007800422      1.31564764755612
| 30>   H           1.43757260335424     -0.56506126875983      1.61754102799020
| 31>   H           1.14271204183676     -1.97007741254846      0.55386514433473
| 32>   H           3.00395844890602      0.41803892511038     -0.12469677973966
| 33>   H           2.58074603485597     -0.88516194122186     -1.24862067506292
| 34>   H           4.00753158243481     -1.27352321176392      1.47765372963938
| 35>   H           3.60718758675724     -2.57566595026334      0.34177381563446
| 36>   H           5.52690805176472     -0.20589988419337     -0.26944867748441
| 37>   H           6.02431597674771     -1.88986088407011      0.08056748207041
| 38>   H           5.11702305819668     -1.51341729757701     -1.41749373789320
| 39>   H          -1.39238378053090     -0.67633156631762      1.61292084737773
| 40>   H          -2.33288590922549      0.07386946184312      0.29226326786134
| 41>   H          -1.14240764557456     -2.79071254544442      0.22262058477744
| 42>   H          -1.92937695462499     -1.98758888232811     -1.14695133482589
| 43>   H          -3.26786984457774     -2.57554278208350      1.58837992737741
| 44>   H          -4.06476198193404     -1.78864528916168      0.21290889733670
| 45>   H          -4.66328686122845     -4.24128737762683      0.29376633914965
| 46>   H          -3.72767893415604     -3.88890870728208     -1.19266048781632
| 47>   H          -2.93168608294451     -4.68536789783916      0.19572485380710
| 48> **                         ****END OF INPUT****

CARTESIAN COORDINATES (ANGSTROEM)
---------------------------------
  C     -1.526429    5.028596   -1.163673
  C     -0.607904    4.138544   -0.321377
  C     -0.797350    2.642506   -0.603334
  C      0.127429    1.741592    0.224898
  P      0.002112   -0.025602   -0.294919
  O      0.011303   -0.210498   -1.805391
  C      1.396900   -0.887708    0.553747
  C      2.729699   -0.660036   -0.170610
  C      3.883548   -1.498634    0.394321
  C      5.208049   -1.267317   -0.338854
  C     -1.531633   -0.665695    0.509291
  C     -1.926095   -2.043752   -0.037144
  C     -3.284800   -2.538152    0.475772
  C     -3.674960   -3.909213   -0.084012
  H     -1.364985    6.104739   -0.950105
  H     -2.596116    4.804808   -0.966734
  H     -1.352117    4.870755   -2.248580
  H     -0.780423    4.334826    0.760889
  H      0.455142    4.410420   -0.509214
  H     -1.859437    2.366059   -0.415838
  H     -0.618379    2.426319   -1.678539
  H      1.187654    2.039291    0.072384
  H     -0.076825    1.819300    1.315648
  H      1.437573   -0.565061    1.617541
  H      1.142712   -1.970077    0.553865
  H      3.003958    0.418039   -0.124697
  H      2.580746   -0.885162   -1.248621
  H      4.007532   -1.273523    1.477654
  H      3.607188   -2.575666    0.341774
  H      5.526908   -0.205900   -0.269449
  H      6.024316   -1.889861    0.080567
  H      5.117023   -1.513417   -1.417494
  H     -1.392384   -0.676332    1.612921
  H     -2.332886    0.073869    0.292263
  H     -1.142408   -2.790713    0.222621
  H     -1.929377   -1.987589   -1.146951
  H     -3.267870   -2.575543    1.588380
  H     -4.064762   -1.788645    0.212909
  H     -4.663287   -4.241287    0.293766
  H     -3.727679   -3.888909   -1.192660
  H     -2.931686   -4.685368    0.195725

 Total Charge           Charge          ....    0
 Multiplicity           Mult            ....    1
 Number of Electrons    NEL             ....  122
 Basis Dimension        Dim             ....  602

ORBITAL ENERGIES
----------------

  NO   OCC          E(Eh)            E(eV)
   0   2.0000     -78.080954     -2124.6908
   1   2.0000     -19.555031      -532.1195
   2   2.0000     -10.547444      -287.0105
   3   2.0000     -10.547428      -287.0101
   4   2.0000     -10.547400      -287.0094
   5   2.0000     -10.540841      -286.8309
   6   2.0000     -10.540829      -286.8305
   7   2.0000     -10.540817      -286.8302
   8   2.0000     -10.538453      -286.7659
   9   2.0000     -10.538453      -286.7659
  10   2.0000     -10.538428      -286.7652
  11   2.0000     -10.529065      -286.5104
  12   2.0000     -10.529061      -286.5103
  13   2.0000     -10.529034      -286.5096
  14   2.0000      -6.887900      -187.4293
  15   2.0000      -5.004810      -136.1878
  16   2.0000      -5.004805      -136.1877
  17   2.0000      -5.003205      -136.1441
  18   2.0000      -1.050287       -28.5798
  19   2.0000      -0.905814       -24.6484
  20   2.0000      -0.896880       -24.4053
  21   2.0000      -0.896853       -24.4046
  22   2.0000      -0.845719       -23.0132
  23   2.0000      -0.820441       -22.3253
  24   2.0000      -0.820406       -22.3244
  25   2.0000      -0.748225       -20.3602
  26   2.0000      -0.716621       -19.5002
  27   2.0000      -0.716556       -19.4985
  28   2.0000      -0.663455       -18.0535
  29   2.0000      -0.661660       -18.0047
  30   2.0000      -0.661583       -18.0026
  31   2.0000      -0.596200       -16.2234
  32   2.0000      -0.548486       -14.9251
  33   2.0000      -0.548427       -14.9235
  34   2.0000      -0.544188       -14.8081
  35   2.0000      -0.509913       -13.8754
  36   2.0000      -0.509815       -13.8728
  37   2.0000      -0.502960       -13.6862
  38   2.0000      -0.491879       -13.3847
  39   2.0000      -0.491820       -13.3831
  40   2.0000      -0.483696       -13.1620
  41   2.0000      -0.471609       -12.8331
  42   2.0000      -0.471547       -12.8314
  43   2.0000      -0.456910       -12.4331
  44   2.0000      -0.439415       -11.9571
  45   2.0000      -0.439355       -11.9555
  46   2.0000      -0.428896       -11.6709
  47   2.0000      -0.416925       -11.3451
  48   2.0000      -0.416887       -11.3441
  49   2.0000      -0.412380       -11.2214
  50   2.0000      -0.406149       -11.0519
  51   2.0000      -0.397757       -10.8235
  52   2.0000      -0.397699       -10.8219
  53   2.0000      -0.393082       -10.6963
  54   2.0000      -0.385324       -10.4852
  55   2.0000      -0.384537       -10.4638
  56   2.0000      -0.384479       -10.4622
  57   2.0000      -0.376045       -10.2327
  58   2.0000      -0.375990       -10.2312
  59   2.0000      -0.318552        -8.6682
  60   2.0000      -0.318544        -8.6680
  61   0.0000       0.050578         1.3763
  62   0.0000       0.063839         1.7371
  63   0.0000       0.063865         1.7378
  64   0.0000       0.075129         2.0444
  65   0.0000       0.084750         2.3062

MULLIKEN ATOMIC CHARGES
-----------------------
   0 C :   -0.429315
   1 C :   -0.230532
   2 C :   -0.300405
   3 C :   -0.427307
   4 P :    0.734605
   5 O :   -0.605920
   6 C :   -0.428576
   7 C :   -0.301063
   8 C :   -0.231019
   9 C :   -0.429136
  10 C :   -0.427138
  11 C :   -0.301777
  12 C :   -0.230461
  13 C :   -0.428936
  14 H :    0.142259
  15 H :    0.135904
  16 H :    0.143185
  17 H :    0.127160
  18 H :    0.133801
  19 H :    0.133594
  20 H :    0.183974
  21 H :    0.174893
  22 H :    0.170027
  23 H :    0.170390
  24 H :    0.175358
  25 H :    0.133704
  26 H :    0.184546
  27 H :    0.127107
  28 H :    0.133922
  29 H :    0.135934
  30 H :    0.142268
  31 H :    0.143315
  32 H :    0.170261
  33 H :    0.174757
  34 H :    0.134091
  35 H :    0.184410
  36 H :    0.127028
  37 H :    0.133915
  38 H :    0.142209
  39 H :    0.143069
  40 H :    0.135898
Sum of atomic charges:   -0.0000000

LOEWDIN ATOMIC CHARGES
----------------------
   0 C :   -0.324004
   1 C :   -0.305479
   2 C :   -0.296236
   3 C :   -0.372212
   4 P :    0.577689
   5 O :   -0.328933
   6 C :   -0.372299
   7 C :   -0.296391
   8 C :   -0.305532
   9 C :   -0.324054
  10 C :   -0.372347
  11 C :   -0.296294
  12 C :   -0.305541
  13 C :   -0.324006
  14 H :    0.122109
  15 H :    0.121963
  16 H :    0.124405
  17 H :    0.135448
  18 H :    0.137648
  19 H :    0.137827
  20 H :    0.151992
  21 H :    0.143864
  22 H :    0.139828
  23 H :    0.139827
  24 H :    0.144083
  25 H :    0.137784
  26 H :    0.152038
  27 H :    0.135470
  28 H :    0.137693
  29 H :    0.121952
  30 H :    0.122134
  31 H :    0.124441
  32 H :    0.139790
  33 H :    0.143890
  34 H :    0.137850
  35 H :    0.152001
  36 H :    0.135467
  37 H :    0.137668
  38 H :    0.122130
  39 H :    0.124406
  40 H :    0.121931

  Mayer bond orders larger than 0.100000
B(  0-C ,  1-C ) :   0.9529 B(  0-C , 14-H ) :   0.9801 B(  0-C , 15-H ) :   0.9740
B(  0-C , 16-H ) :   0.9728 B(  1-C ,  2-C ) :   0.9234 B(  1-C , 17-H ) :   0.9736
B(  1-C , 18-H ) :   0.9757 B(  2-C ,  3-C ) :   0.9083 B(  2-C , 19-H ) :   0.9723
B(  2-C , 20-H ) :   0.9678 B(  3-C ,  4-P ) :   0.9008 B(  3-C , 21-H ) :   0.9589
B(  3-C , 22-H ) :   0.9460 B(  4-P ,  5-O ) :   1.9400 B(  4-P ,  6-C ) :   0.8998
B(  4-P , 10-C ) :   0.8998 B(  6-C ,  7-C ) :   0.9078 B(  6-C , 23-H ) :   0.9464
B(  6-C , 24-H ) :   0.9590 B(  7-C ,  8-C ) :   0.9254 B(  7-C , 25-H ) :   0.9721
B(  7-C , 26-H ) :   0.9673 B(  8-C ,  9-C ) :   0.9536 B(  8-C , 27-H ) :   0.9736
B(  8-C , 28-H ) :   0.9755 B(  9-C , 29-H ) :   0.9739 B(  9-C , 30-H ) :   0.9799
B(  9-C , 31-H ) :   0.9727 B( 10-C , 11-C ) :   0.9075 B( 10-C , 32-H ) :   0.9463
B( 10-C , 33-H ) :   0.9591 B( 11-C , 12-C ) :   0.9255 B( 11-C , 34-H ) :   0.9722
B( 11-C , 35-H ) :   0.9677 B( 12-C , 13-C ) :   0.9535 B( 12-C , 36-H ) :   0.9733
B( 12-C , 37-H ) :   0.9756 B( 13-C , 38-H ) :   0.9800 B( 13-C , 39-H ) :   0.9728
B( 13-C , 40-H ) :   0.9741

Dispersion correction           -0.002012746
FINAL SINGLE POINT ENERGY      -890.096383047275

DIPOLE MOMENT
-------------

Method             : SCF
Type of density    : Electron Density
Multiplicity       :   1
Irrep              :   0
Energy             :  -890.0943703009772889 Eh
Relativity type    :
Basis              : AO
                                X                 Y                 Z
Electronic contribution:      0.023675604      -0.318771866      -2.464107811
Nuclear contribution   :     -0.032671908       0.505393374       3.986972561
                        -----------------------------------------
Total Dipole Moment    :     -0.008996304       0.186621508       1.522864751
                        -----------------------------------------
Magnitude (a.u.)       :      1.534283406
Magnitude (Debye)      :      3.899838492

Rotational constants in cm-1:             0.012417             0.012383             0.006655
Rotational constants in MHz :           372.241853           371.218511           199.526734

                             ****ORCA TERMINATED NORMALLY****
TOTAL RUN TIME: 0 days 0 hours 1 minutes 13 seconds 762 msec
