                         Program Version 6.0.0  -   RELEASE   -
|  1> ! RI BP86 def2-SVP D3BJ TIGHTSCF Opt
|  2> %pal
|  3> nprocs 6
|  4> end
|  5>
|  6> * xyz 0 1
|  7> C     -2.545318   -0.974418   -1.243425
|  8> C     -1.160800   -1.292557   -0.659155
|  9> C     -0.540154   -2.398495   -1.551954
| 10> C     -1.336951   -1.900585    0.738953
| 11> P     -0.021215    0.183597   -0.732056
| 12> O      0.202180    0.494869   -2.200539
| 13> C      1.511284   -0.224414    0.103344
| 14> C      2.681502   -0.329171   -0.666451
| 15> C      3.907948   -0.639733   -0.077528
| 16> C      3.984544   -0.850530    1.295508
| 17> C      2.835718   -0.750175    2.075648
| 18> C      1.608728   -0.438700    1.483308
| 19> C     -0.790636    1.708824    0.021797
| 20> C     -1.543215    1.487434    1.335579
| 21> C     -1.757235    2.381201   -0.978829
| 22> C      0.335195    2.737718    0.289527
| 23> H     -2.456810   -0.488403   -2.220416
| 24> H     -3.114240   -0.312733   -0.586696
| 25> H     -3.143568   -1.883375   -1.375294
| 26> H     -0.438476   -2.057996   -2.587835
| 27> H      0.459544   -2.672519   -1.199188
| 28> H     -1.155330   -3.305314   -1.556284
| 29> H     -2.056142   -2.728100    0.721254
| 30> H     -1.698873   -1.173702    1.465545
| 31> H     -0.396184   -2.308368    1.119452
| 32> H      2.634941   -0.163570   -1.742562
| 33> H      4.800735   -0.714879   -0.692967
| 34> H      4.938508   -1.092136    1.756634
| 35> H      2.894870   -0.915079    3.148690
| 36> H      0.734728   -0.372918    2.121515
| 37> H     -2.431717    0.869295    1.190766
| 38> H     -1.887340    2.438571    1.759198
| 39> H     -0.915962    1.009105    2.089139
| 40> H     -2.600063    1.735405   -1.228962
| 41> H     -1.247809    2.629495   -1.915826
| 42> H     -2.169184    3.311804   -0.571476
| 43> H      0.931560    2.905333   -0.613949
| 44> H     -0.069862    3.703628    0.611957
| 45> H      1.015098    2.391591    1.073577
| 46> **                         ****END OF INPUT****
 Total Charge           Charge          ....    0
 Multiplicity           Mult            ....    1
 Number of Electrons    NEL             ....  130
Dispersion correction           -0.086449629
FINAL SINGLE POINT ENERGY      -963.486305199025
Dispersion correction             ... done (  0.1 sec)
Dispersion correction           -0.086748986
FINAL SINGLE POINT ENERGY      -963.495915924467
Dispersion correction             ... done (  0.1 sec)
Dispersion correction           -0.086568551
FINAL SINGLE POINT ENERGY      -963.497799724628
Dispersion correction             ... done (  0.1 sec)
FINAL SINGLE POINT ENERGY      -963.497871933607
FINAL SINGLE POINT ENERGY      -963.498386738319
FINAL SINGLE POINT ENERGY      -963.498366625585
FINAL SINGLE POINT ENERGY      -963.498442799137
Dispersion correction             ... done (  0.1 sec)
Dispersion correction           -0.086453851
FINAL SINGLE POINT ENERGY      -963.498439687272
Dispersion correction             ... done (  0.1 sec)
Dispersion correction           -0.086452180
FINAL SINGLE POINT ENERGY      -963.498449690762
Dispersion correction             ... done (  0.1 sec)
                    ***********************HURRAY********************

CARTESIAN COORDINATES (ANGSTROEM)
---------------------------------
  C     -2.552995   -0.993789   -1.283481
  C     -1.186424   -1.336419   -0.660675
  C     -0.459284   -2.364793   -1.554728
  C     -1.353472   -1.912097    0.754034
  P     -0.088144    0.202757   -0.774696
  O      0.227912    0.511128   -2.237375
  C      1.458314   -0.224895    0.131790
  C      2.613410   -0.311409   -0.672221
  C      3.854711   -0.626237   -0.097241
  C      3.953763   -0.850395    1.286105
  C      2.807665   -0.757385    2.094670
  C      1.563948   -0.447588    1.521489
  C     -0.806091    1.749805    0.057254
  C     -1.518792    1.504502    1.395384
  C     -1.776253    2.379652   -0.964276
  C      0.396690    2.698686    0.249759
  H     -2.426827   -0.496054   -2.265430
  H     -3.157091   -0.335035   -0.627840
  H     -3.133629   -1.927434   -1.441977
  H     -0.301571   -1.957672   -2.571658
  H      0.530987   -2.637076   -1.136050
  H     -1.069044   -3.290615   -1.622961
  H     -1.994987   -2.818283    0.702935
  H     -1.839803   -1.205011    1.452906
  H     -0.382750   -2.222453    1.187153
  H      2.504066   -0.117461   -1.750998
  H      4.751262   -0.693491   -0.732792
  H      4.927232   -1.095347    1.738213
  H      2.882312   -0.926805    3.179911
  H      0.678701   -0.373499    2.169178
  H     -2.419237    0.870433    1.276115
  H     -1.854651    2.477044    1.815558
  H     -0.858103    1.035669    2.151127
  H     -2.705013    1.788279   -1.078021
  H     -1.293891    2.456242   -1.957626
  H     -2.062160    3.396395   -0.620639
  H      0.965271    2.809864   -0.695314
  H      0.029437    3.702539    0.551581
  H      1.094530    2.338246    1.030836

 Multiplicity           Mult            ....    1
 Number of Electrons    NEL             ....  130
 Basis Dimension        Dim             ....  343

ORBITAL ENERGIES
----------------

  NO   OCC          E(Eh)            E(eV)
   0   2.0000     -76.403508     -2079.0452
   1   2.0000     -18.710188      -509.1301
   2   2.0000      -9.938572      -270.4423
   3   2.0000      -9.937296      -270.4076
   4   2.0000      -9.932870      -270.2871
   5   2.0000      -9.929166      -270.1863
   6   2.0000      -9.928995      -270.1817
   7   2.0000      -9.926385      -270.1107
   8   2.0000      -9.926222      -270.1062
   9   2.0000      -9.923654      -270.0364
  10   2.0000      -9.920881      -269.9609
  11   2.0000      -9.916007      -269.8283
  12   2.0000      -9.913601      -269.7628
  13   2.0000      -9.910200      -269.6703
  14   2.0000      -9.906573      -269.5715
  15   2.0000      -9.906328      -269.5649
  16   2.0000      -6.362133      -173.1225
  17   2.0000      -4.583673      -124.7281
  18   2.0000      -4.583203      -124.7153
  19   2.0000      -4.582842      -124.7055
  20   2.0000      -0.843624       -22.9562
  21   2.0000      -0.777152       -21.1474
  22   2.0000      -0.740362       -20.1463
  23   2.0000      -0.731241       -19.8981
  24   2.0000      -0.679411       -18.4877
  25   2.0000      -0.675494       -18.3811
  26   2.0000      -0.623361       -16.9625
  27   2.0000      -0.619294       -16.8519
  28   2.0000      -0.613773       -16.7016
  29   2.0000      -0.610110       -16.6019
  30   2.0000      -0.573216       -15.5980
  31   2.0000      -0.547915       -14.9095
  32   2.0000      -0.528138       -14.3714
  33   2.0000      -0.495343       -13.4790
  34   2.0000      -0.479088       -13.0367
  35   2.0000      -0.447706       -12.1827
  36   2.0000      -0.423034       -11.5113
  37   2.0000      -0.417908       -11.3719
  38   2.0000      -0.411035       -11.1848
  39   2.0000      -0.403934       -10.9916
  40   2.0000      -0.397114       -10.8060
  41   2.0000      -0.393845       -10.7171
  42   2.0000      -0.387405       -10.5418
  43   2.0000      -0.382528       -10.4091
  44   2.0000      -0.378273       -10.2933
  45   2.0000      -0.360590        -9.8121
  46   2.0000      -0.350436        -9.5359
  47   2.0000      -0.346520        -9.4293
  48   2.0000      -0.342444        -9.3184
  49   2.0000      -0.339636        -9.2420
  50   2.0000      -0.334752        -9.1091
  51   2.0000      -0.325334        -8.8528
  52   2.0000      -0.322593        -8.7782
  53   2.0000      -0.315104        -8.5744
  54   2.0000      -0.310743        -8.4558
  55   2.0000      -0.303934        -8.2705
  56   2.0000      -0.297253        -8.0887
  57   2.0000      -0.296194        -8.0598
  58   2.0000      -0.286727        -7.8022
  59   2.0000      -0.281616        -7.6632
  60   2.0000      -0.277552        -7.5526
  61   2.0000      -0.238897        -6.5007
  62   2.0000      -0.237096        -6.4517
  63   2.0000      -0.211178        -5.7464
  64   2.0000      -0.205265        -5.5855
  65   0.0000      -0.061649        -1.6776
  66   0.0000      -0.050658        -1.3785
  67   0.0000       0.016488         0.4487
  68   0.0000       0.026832         0.7301
  69   0.0000       0.037079         1.0090

MULLIKEN ATOMIC CHARGES
-----------------------
   0 C :    0.024364
   1 C :   -0.405274
   2 C :    0.025823
   3 C :    0.028718
   4 P :    0.589063
   5 O :   -0.473658
   6 C :   -0.136670
   7 C :    0.010717
   8 C :    0.005884
   9 C :    0.007662
  10 C :   -0.004708
  11 C :   -0.006618
  12 C :   -0.409395
  13 C :    0.032672
  14 C :    0.034839
  15 C :    0.026506
  16 H :    0.053563
  17 H :    0.031264
  18 H :    0.025234
  19 H :    0.053698
  20 H :    0.035437
  21 H :    0.023375
  22 H :    0.025542
  23 H :    0.016012
  24 H :    0.040645
  25 H :    0.026365
  26 H :    0.009221
  27 H :    0.007969
  28 H :    0.002534
  29 H :    0.000661
  30 H :    0.038075
  31 H :    0.026442
  32 H :    0.024981
  33 H :    0.016640
  34 H :    0.056218
  35 H :    0.022452
  36 H :    0.048711
  37 H :    0.025934
  38 H :    0.039102
Sum of atomic charges:   -0.0000000

LOEWDIN ATOMIC CHARGES
----------------------
   0 C :   -0.066718
   1 C :   -0.180543
   2 C :   -0.066669
   3 C :   -0.070142
   4 P :    0.899632
   5 O :   -0.502990
   6 C :   -0.182122
   7 C :   -0.018006
   8 C :   -0.028090
   9 C :   -0.023299
  10 C :   -0.032640
  11 C :   -0.038832
  12 C :   -0.180089
  13 C :   -0.067317
  14 C :   -0.066550
  15 C :   -0.066442
  16 H :    0.034605
  17 H :    0.021895
  18 H :    0.030112
  19 H :    0.034300
  20 H :    0.029363
  21 H :    0.027022
  22 H :    0.031845
  23 H :    0.023853
  24 H :    0.030167
  25 H :    0.037651
  26 H :    0.035307
  27 H :    0.034253
  28 H :    0.033628
  29 H :    0.026160
  30 H :    0.024922
  31 H :    0.032998
  32 H :    0.023570
  33 H :    0.024319
  34 H :    0.035933
  35 H :    0.027033
  36 H :    0.034673
  37 H :    0.028615
  38 H :    0.028588

  Mayer bond orders larger than 0.100000
B(  0-C ,  1-C ) :   1.0312 B(  0-C , 16-H ) :   0.9492 B(  0-C , 17-H ) :   0.9524
B(  0-C , 18-H ) :   0.9478 B(  1-C ,  2-C ) :   1.0135 B(  1-C ,  3-C ) :   1.0196
B(  1-C ,  4-P ) :   0.8604 B(  2-C , 19-H ) :   0.9482 B(  2-C , 20-H ) :   0.9588
B(  2-C , 21-H ) :   0.9503 B(  3-C , 22-H ) :   0.9457 B(  3-C , 23-H ) :   0.9539
B(  3-C , 24-H ) :   0.9480 B(  4-P ,  5-O ) :   1.7965 B(  4-P ,  6-C ) :   0.8708
B(  4-P , 12-C ) :   0.8512 B(  6-C ,  7-C ) :   1.3892 B(  6-C , 11-C ) :   1.3409
B(  7-C ,  8-C ) :   1.3632 B(  7-C , 25-H ) :   0.9639 B(  8-C ,  9-C ) :   1.3786
B(  8-C , 26-H ) :   0.9791 B(  9-C , 10-C ) :   1.3756 B(  9-C , 27-H ) :   0.9762
B( 10-C , 11-C ) :   1.3973 B( 10-C , 28-H ) :   0.9753 B( 11-C , 29-H ) :   0.9631
B( 12-C , 13-C ) :   1.0195 B( 12-C , 14-C ) :   1.0257 B( 12-C , 15-C ) :   1.0295
B( 13-C , 30-H ) :   0.9495 B( 13-C , 31-H ) :   0.9414 B( 13-C , 32-H ) :   0.9543
B( 14-C , 33-H ) :   0.9552 B( 14-C , 34-H ) :   0.9460 B( 14-C , 35-H ) :   0.9517
B( 15-C , 36-H ) :   0.9527 B( 15-C , 37-H ) :   0.9510 B( 15-C , 38-H ) :   0.9522

Dispersion correction           -0.086454749
FINAL SINGLE POINT ENERGY      -963.498450248901

DIPOLE MOMENT
-------------

Method             : SCF
Type of density    : Electron Density
Multiplicity       :   1
Irrep              :   0
Energy             :  -963.4119955002495317 Eh
Relativity type    :
Basis              : AO
                                X                 Y                 Z
Electronic contribution:     13.175278025      -1.059036170      -2.858718096
Nuclear contribution   :    -13.364403784       0.789727848       4.138485540
                        -----------------------------------------
Total Dipole Moment    :     -0.189125759      -0.269308322       1.279767444
                        -----------------------------------------
Magnitude (a.u.)       :      1.321400861
Magnitude (Debye)      :      3.358734067

Rotational constants in cm-1:             0.022176             0.013349             0.011535
Rotational constants in MHz :           664.827231           400.182399           345.808119

                             ****ORCA TERMINATED NORMALLY****
TOTAL RUN TIME: 0 days 0 hours 2 minutes 50 seconds 611 msec
