                         Program Version 6.0.0  -   RELEASE   -
|  1> ! RI BP86 def2-SVP D3BJ TIGHTSCF Opt
|  2> %pal
|  3> nprocs 6
|  4> end
|  5>
|  6> * xyz 0 1
|  7> C     -3.030930   -3.284337   -0.981055
|  8> C     -1.675783   -3.534638   -0.789495
|  9> C     -0.860761   -2.568228   -0.190836
| 10> C     -1.377135   -1.323324    0.204382
| 11> C     -2.756792   -1.110571    0.037536
| 12> C     -3.573966   -2.074717   -0.560551
| 13> P     -0.345560   -0.072851    1.032682
| 14> C     -0.818498    1.531756    0.301556
| 15> C     -0.650901    2.680475    1.094184
| 16> C     -0.981274    3.948121    0.607403
| 17> C     -1.482524    4.089595   -0.683066
| 18> C     -1.649702    2.965072   -1.486501
| 19> C     -1.317880    1.697215   -0.998637
| 20> C      1.335319   -0.259789    0.319382
| 21> C      1.514544   -0.407078   -1.071930
| 22> C      2.782242   -0.582438   -1.635364
| 23> C      3.908261   -0.612937   -0.822508
| 24> C      3.766321   -0.458947    0.554049
| 25> C      2.493196   -0.277678    1.127344
| 26> C      2.440831   -0.071727    2.595413
| 27> O      1.821379    0.776587    3.206409
| 28> O      3.203506   -0.979854    3.235048
| 29> H     -3.665465   -4.036808   -1.441477
| 30> H     -1.250119   -4.487149   -1.094619
| 31> H      0.186837   -2.813950   -0.030197
| 32> H     -3.218237   -0.185001    0.378649
| 33> H     -4.635994   -1.880707   -0.686527
| 34> H     -0.252737    2.598069    2.105489
| 35> H     -0.842590    4.821950    1.238521
| 36> H     -1.738770    5.074866   -1.062935
| 37> H     -2.036774    3.071801   -2.496483
| 38> H     -1.455551    0.843374   -1.656962
| 39> H      0.659512   -0.396557   -1.744749
| 40> H      2.884037   -0.695731   -2.712110
| 41> H      4.894676   -0.748827   -1.258389
| 42> H      4.653498   -0.470264    1.183949
| 43> H      3.073783   -0.764774    4.182392
| 44> **                         ****END OF INPUT****
 Total Charge           Charge          ....    0
 Multiplicity           Mult            ....    1
 Number of Electrons    NEL             ....  160
Dispersion correction           -0.090636929
FINAL SINGLE POINT ENERGY     -1224.251988357367
Dispersion correction             ... done (  0.1 sec)
Dispersion correction           -0.091307145
FINAL SINGLE POINT ENERGY     -1224.259206558995
Dispersion correction             ... done (  0.1 sec)
Dispersion correction           -0.091581607
FINAL SINGLE POINT ENERGY     -1224.260803994682
Dispersion correction             ... done (  0.1 sec)
FINAL SINGLE POINT ENERGY     -1224.261011322163
FINAL SINGLE POINT ENERGY     -1224.261604385015
FINAL SINGLE POINT ENERGY     -1224.260875616445
FINAL SINGLE POINT ENERGY     -1224.262137053381
FINAL SINGLE POINT ENERGY     -1224.262352153021
FINAL SINGLE POINT ENERGY     -1224.263719076764
FINAL SINGLE POINT ENERGY     -1224.264321858048
FINAL SINGLE POINT ENERGY     -1224.267968351304
FINAL SINGLE POINT ENERGY     -1224.268369561958
FINAL SINGLE POINT ENERGY     -1224.268505274066
FINAL SINGLE POINT ENERGY     -1224.268574068654
FINAL SINGLE POINT ENERGY     -1224.268606574092
FINAL SINGLE POINT ENERGY     -1224.268625988656
FINAL SINGLE POINT ENERGY     -1224.268632415374
Dispersion correction             ... done (  0.1 sec)
Dispersion correction           -0.092702730
FINAL SINGLE POINT ENERGY     -1224.268635036627
Dispersion correction             ... done (  0.1 sec)
Dispersion correction           -0.092703615
FINAL SINGLE POINT ENERGY     -1224.268635975964
Dispersion correction             ... done (  0.1 sec)
                    ***********************HURRAY********************

CARTESIAN COORDINATES (ANGSTROEM)
---------------------------------
  C     -3.155104   -3.007398   -1.302308
  C     -2.405680   -3.569140   -0.254194
  C     -1.524506   -2.765725    0.486391
  C     -1.360599   -1.396822    0.176951
  C     -2.122160   -0.841951   -0.873750
  C     -3.014559   -1.642400   -1.605721
  P     -0.165451   -0.439494    1.235485
  C     -0.678133    1.289161    0.815365
  C     -1.655914    1.888927    1.635550
  C     -2.117766    3.185878    1.362580
  C     -1.597269    3.904755    0.272999
  C     -0.616473    3.317407   -0.543928
  C     -0.161375    2.015753   -0.277330
  C      1.383703   -0.619630    0.215638
  C      1.409030   -1.444141   -0.930335
  C      2.587636   -1.643971   -1.664872
  C      3.784505   -1.023841   -1.270847
  C      3.788110   -0.206461   -0.135121
  C      2.606899    0.001297    0.610837
  C      2.645404    0.863854    1.821015
  O      1.675338    1.139748    2.514851
  O      3.888370    1.333112    2.116882
  H     -3.854834   -3.632680   -1.878087
  H     -2.516874   -4.635920   -0.004958
  H     -0.948788   -3.201906    1.319403
  H     -2.012849    0.224647   -1.120842
  H     -3.604278   -1.196069   -2.421731
  H     -2.052872    1.331720    2.499001
  H     -2.882562    3.642028    2.010192
  H     -1.954183    4.924635    0.062114
  H     -0.204458    3.875166   -1.399502
  H      0.601390    1.558688   -0.925901
  H      0.481896   -1.933208   -1.260036
  H      2.565220   -2.287076   -2.558408
  H      4.709876   -1.175935   -1.846361
  H      4.711655    0.288127    0.195142
  H      3.767657    1.878864    2.923833

 Multiplicity           Mult            ....    1
 Number of Electrons    NEL             ....  160
 Basis Dimension        Dim             ....  387

ORBITAL ENERGIES
----------------

  NO   OCC          E(Eh)            E(eV)
   0   2.0000     -76.345727     -2077.4729
   1   2.0000     -18.828537      -512.3505
   2   2.0000     -18.773239      -510.8458
   3   2.0000     -10.038503      -273.1616
   4   2.0000      -9.940083      -270.4834
   5   2.0000      -9.938971      -270.4532
   6   2.0000      -9.933009      -270.2909
   7   2.0000      -9.932827      -270.2860
   8   2.0000      -9.930077      -270.2111
   9   2.0000      -9.927396      -270.1382
  10   2.0000      -9.922079      -269.9935
  11   2.0000      -9.921970      -269.9905
  12   2.0000      -9.921723      -269.9838
  13   2.0000      -9.921458      -269.9766
  14   2.0000      -9.921114      -269.9672
  15   2.0000      -9.920787      -269.9583
  16   2.0000      -9.919176      -269.9145
  17   2.0000      -9.918968      -269.9088
  18   2.0000      -9.918770      -269.9035
  19   2.0000      -9.918172      -269.8872
  20   2.0000      -9.918124      -269.8859
  21   2.0000      -9.917759      -269.8759
  22   2.0000      -6.312652      -171.7760
  23   2.0000      -4.534242      -123.3830
  24   2.0000      -4.534004      -123.3765
  25   2.0000      -4.530663      -123.2856
  26   2.0000      -1.007254       -27.4088
  27   2.0000      -0.918069       -24.9819
  28   2.0000      -0.785828       -21.3835
  29   2.0000      -0.771756       -21.0006
  30   2.0000      -0.766814       -20.8661
  31   2.0000      -0.699843       -19.0437
  32   2.0000      -0.694927       -18.9099
  33   2.0000      -0.672018       -18.2865
  34   2.0000      -0.668627       -18.1943
  35   2.0000      -0.665604       -18.1120
  36   2.0000      -0.662904       -18.0385
  37   2.0000      -0.603685       -16.4271
  38   2.0000      -0.578340       -15.7374
  39   2.0000      -0.553024       -15.0486
  40   2.0000      -0.541294       -14.7294
  41   2.0000      -0.538684       -14.6583
  42   2.0000      -0.530189       -14.4272
  43   2.0000      -0.526284       -14.3209
  44   2.0000      -0.499904       -13.6031
  45   2.0000      -0.476427       -12.9642
  46   2.0000      -0.462333       -12.5807
  47   2.0000      -0.448568       -12.2062
  48   2.0000      -0.430658       -11.7188
  49   2.0000      -0.422227       -11.4894
  50   2.0000      -0.413701       -11.2574
  51   2.0000      -0.407893       -11.0993
  52   2.0000      -0.405281       -11.0283
  53   2.0000      -0.402485       -10.9522
  54   2.0000      -0.396758       -10.7963
  55   2.0000      -0.394107       -10.7242
  56   2.0000      -0.390264       -10.6196
  57   2.0000      -0.374424       -10.1886
  58   2.0000      -0.372599       -10.1389
  59   2.0000      -0.370000       -10.0682
  60   2.0000      -0.360529        -9.8105
  61   2.0000      -0.352547        -9.5933
  62   2.0000      -0.337583        -9.1861
  63   2.0000      -0.331900        -9.0315
  64   2.0000      -0.328422        -8.9368
  65   2.0000      -0.325536        -8.8583
  66   2.0000      -0.317405        -8.6370
  67   2.0000      -0.302976        -8.2444
  68   2.0000      -0.302151        -8.2219
  69   2.0000      -0.291437        -7.9304
  70   2.0000      -0.285383        -7.7657
  71   2.0000      -0.282794        -7.6952
  72   2.0000      -0.257080        -6.9955
  73   2.0000      -0.244618        -6.6564
  74   2.0000      -0.242642        -6.6026
  75   2.0000      -0.235022        -6.3953
  76   2.0000      -0.232291        -6.3210
  77   2.0000      -0.227660        -6.1949
  78   2.0000      -0.224666        -6.1135
  79   2.0000      -0.190482        -5.1833
  80   0.0000      -0.090263        -2.4562
  81   0.0000      -0.059180        -1.6104
  82   0.0000      -0.053865        -1.4658
  83   0.0000      -0.045881        -1.2485
  84   0.0000      -0.042387        -1.1534

MULLIKEN ATOMIC CHARGES
-----------------------
   0 C :    0.001884
   1 C :    0.000935
   2 C :    0.007041
   3 C :   -0.182255
   4 C :    0.013167
   5 C :    0.005520
   6 P :    0.334854
   7 C :   -0.128841
   8 C :    0.027530
   9 C :   -0.003413
  10 C :    0.003361
  11 C :   -0.000256
  12 C :   -0.000197
  13 C :   -0.150669
  14 C :   -0.003758
  15 C :    0.019914
  16 C :    0.009910
  17 C :   -0.000299
  18 C :   -0.024934
  19 C :    0.121365
  20 O :   -0.180789
  21 O :   -0.155276
  22 H :    0.004246
  23 H :    0.003982
  24 H :    0.003288
  25 H :    0.010905
  26 H :    0.001696
  27 H :    0.002793
  28 H :    0.003351
  29 H :    0.002329
  30 H :   -0.000387
  31 H :    0.010840
  32 H :    0.026857
  33 H :    0.008548
  34 H :    0.007475
  35 H :    0.013240
  36 H :    0.186044
Sum of atomic charges:   -0.0000000

LOEWDIN ATOMIC CHARGES
----------------------
   0 C :   -0.029974
   1 C :   -0.033290
   2 C :   -0.037369
   3 C :   -0.178927
   4 C :   -0.033029
   5 C :   -0.031483
   6 P :    0.520002
   7 C :   -0.156872
   8 C :   -0.027423
   9 C :   -0.030249
  10 C :   -0.031734
  11 C :   -0.033200
  12 C :   -0.041039
  13 C :   -0.139074
  14 C :   -0.033881
  15 C :   -0.013052
  16 C :   -0.032301
  17 C :   -0.003781
  18 C :   -0.083068
  19 C :    0.064428
  20 O :   -0.156058
  21 O :   -0.030306
  22 H :    0.032494
  23 H :    0.033090
  24 H :    0.029712
  25 H :    0.034634
  26 H :    0.032778
  27 H :    0.031873
  28 H :    0.033032
  29 H :    0.031865
  30 H :    0.031922
  31 H :    0.031677
  32 H :    0.038794
  33 H :    0.036373
  34 H :    0.035385
  35 H :    0.037740
  36 H :    0.100310

  Mayer bond orders larger than 0.100000
B(  0-C ,  1-C ) :   1.3769 B(  0-C ,  5-C ) :   1.3750 B(  0-C , 22-H ) :   0.9755
B(  1-C ,  2-C ) :   1.3962 B(  1-C , 23-H ) :   0.9764 B(  2-C ,  3-C ) :   1.3661
B(  2-C , 24-H ) :   0.9711 B(  3-C ,  4-C ) :   1.3754 B(  3-C ,  6-P ) :   0.8896
B(  4-C ,  5-C ) :   1.3864 B(  4-C , 25-H ) :   0.9668 B(  5-C , 26-H ) :   0.9747
B(  6-P ,  7-C ) :   0.9392 B(  6-P , 13-C ) :   0.9492 B(  7-C ,  8-C ) :   1.3760
B(  7-C , 12-C ) :   1.3759 B(  8-C ,  9-C ) :   1.3965 B(  8-C , 27-H ) :   0.9714
B(  9-C , 10-C ) :   1.3775 B(  9-C , 28-H ) :   0.9757 B( 10-C , 11-C ) :   1.3767
B( 10-C , 29-H ) :   0.9757 B( 11-C , 12-C ) :   1.3822 B( 11-C , 30-H ) :   0.9750
B( 12-C , 31-H ) :   0.9666 B( 13-C , 14-C ) :   1.3838 B( 13-C , 18-C ) :   1.3629
B( 14-C , 15-C ) :   1.3790 B( 14-C , 32-H ) :   0.9595 B( 15-C , 16-C ) :   1.3499
B( 15-C , 33-H ) :   0.9746 B( 16-C , 17-C ) :   1.3642 B( 16-C , 34-H ) :   0.9768
B( 17-C , 18-C ) :   1.3620 B( 17-C , 35-H ) :   0.9686 B( 18-C , 19-C ) :   0.9565
B( 19-C , 20-O ) :   2.0072 B( 19-C , 21-O ) :   1.2657 B( 21-O , 36-H ) :   0.9371

Dispersion correction           -0.092701532
FINAL SINGLE POINT ENERGY     -1224.268636373715

DIPOLE MOMENT
-------------

Method             : SCF
Type of density    : Electron Density
Multiplicity       :   1
Irrep              :   0
Energy             : -1224.1759348419768685 Eh
Relativity type    :
Basis              : AO
                                X                 Y                 Z
Electronic contribution:      5.534457803       0.170260279       8.408457015
Nuclear contribution   :     -5.103465321      -0.115396894      -9.066650786
                        -----------------------------------------
Total Dipole Moment    :      0.430992482       0.054863385      -0.658193771
                        -----------------------------------------
Magnitude (a.u.)       :      0.788659338
Magnitude (Debye)      :      2.004612728

Rotational constants in cm-1:             0.010704             0.008303             0.005736
Rotational constants in MHz :           320.886549           248.928377           171.970830

                             ****ORCA TERMINATED NORMALLY****
TOTAL RUN TIME: 0 days 0 hours 7 minutes 39 seconds 582 msec
