                         Program Version 6.0.0  -   RELEASE   -
|  1> ! RI BP86 def2-SVP D3BJ TIGHTSCF Opt
|  2> %pal
|  3> nprocs 6
|  4> end
|  5>
|  6> * xyz 0 1
|  7> C     -3.749845   -4.245279    0.902439
|  8> C     -2.802428   -3.233071    0.331535
|  9> C     -1.929626   -3.580499   -0.701996
| 10> C     -1.069705   -2.625365   -1.254376
| 11> C     -1.063517   -1.296975   -0.795227
| 12> C     -1.956351   -0.956738    0.230035
| 13> C     -2.818058   -1.911071    0.783897
| 14> P      0.094766   -0.128334   -1.579147
| 15> C     -0.455516    1.504993   -0.986441
| 16> C      0.113636    2.184650    0.099013
| 17> C     -0.363634    3.439373    0.496426
| 18> C     -1.428859    4.042662   -0.177297
| 19> C     -1.992930    3.383364   -1.271749
| 20> C     -1.514328    2.129903   -1.667531
| 21> C     -1.915888    5.401402    0.228565
| 22> C      1.668161   -0.409975   -0.703376
| 23> C      2.834192    0.156796   -1.246167
| 24> C      4.078909   -0.014495   -0.631183
| 25> C      4.189052   -0.752397    0.549514
| 26> C      3.039495   -1.335848    1.088652
| 27> C      1.794619   -1.162893    0.471869
| 28> C      5.526286   -0.967273    1.192729
| 29> H     -3.318131   -5.250878    0.862023
| 30> H     -3.967099   -4.027696    1.953483
| 31> H     -4.687730   -4.239879    0.338642
| 32> H     -1.909446   -4.597360   -1.087355
| 33> H     -0.397872   -2.934207   -2.053653
| 34> H     -2.000973    0.055075    0.624744
| 35> H     -3.501801   -1.608720    1.574168
| 36> H      0.937355    1.754630    0.663036
| 37> H      0.107124    3.939730    1.339919
| 38> H     -2.810365    3.837736   -1.826964
| 39> H     -1.983306    1.642456   -2.520785
| 40> H     -1.357482    6.174792   -0.307698
| 41> H     -1.789963    5.555900    1.305371
| 42> H     -2.982139    5.516533    0.006991
| 43> H      2.785464    0.744447   -2.161525
| 44> H      4.959808    0.434808   -1.084019
| 45> H      3.099928   -1.932050    1.996585
| 46> H      0.930018   -1.628992    0.937454
| 47> H      6.187258   -0.112449    1.014873
| 48> H      5.424637   -1.078367    2.277423
| 49> H      5.996282   -1.868437    0.787101
| 50> **                         ****END OF INPUT****
 Total Charge           Charge          ....    0
 Multiplicity           Mult            ....    1
 Number of Electrons    NEL             ....  162
Dispersion correction           -0.096157439
FINAL SINGLE POINT ENERGY     -1153.678650244269
Dispersion correction             ... done (  0.1 sec)
Dispersion correction           -0.096477860
FINAL SINGLE POINT ENERGY     -1153.685297197586
Dispersion correction             ... done (  0.1 sec)
Dispersion correction           -0.096663089
FINAL SINGLE POINT ENERGY     -1153.686151895172
Dispersion correction             ... done (  0.1 sec)
FINAL SINGLE POINT ENERGY     -1153.686393570539
FINAL SINGLE POINT ENERGY     -1153.686431767276
Dispersion correction             ... done (  0.1 sec)
Dispersion correction           -0.096685076
FINAL SINGLE POINT ENERGY     -1153.686435938793
Dispersion correction             ... done (  0.1 sec)
Dispersion correction           -0.096678905
FINAL SINGLE POINT ENERGY     -1153.686437184504
Dispersion correction             ... done (  0.1 sec)
                    ***********************HURRAY********************

CARTESIAN COORDINATES (ANGSTROEM)
---------------------------------
  C     -3.700339   -4.192900    1.002544
  C     -2.768572   -3.194642    0.358656
  C     -1.905142   -3.576673   -0.690980
  C     -1.071015   -2.641626   -1.318324
  C     -1.055034   -1.292969   -0.900239
  C     -1.913009   -0.904908    0.149066
  C     -2.755899   -1.843564    0.763489
  P      0.106790   -0.144639   -1.770552
  C     -0.439078    1.488120   -1.091005
  C      0.148492    2.115861    0.026228
  C     -0.335191    3.350516    0.485353
  C     -1.418595    3.995599   -0.146861
  C     -2.003463    3.360097   -1.263596
  C     -1.516409    2.133941   -1.735914
  C     -1.914655    5.338280    0.333243
  C      1.663011   -0.422969   -0.807461
  C      2.849333    0.156637   -1.308123
  C      4.062877    0.011103   -0.622763
  C      4.139910   -0.736468    0.572370
  C      2.953302   -1.321885    1.060952
  C      1.731948   -1.168447    0.387164
  C      5.456805   -0.932478    1.284272
  H     -3.276038   -5.216681    0.988551
  H     -3.923082   -3.924400    2.054466
  H     -4.672253   -4.235626    0.463968
  H     -1.893262   -4.626264   -1.026918
  H     -0.412785   -2.962207   -2.142368
  H     -1.915355    0.140398    0.492889
  H     -3.416771   -1.519874    1.584169
  H      0.987187    1.629227    0.546474
  H      0.137045    3.822308    1.362586
  H     -2.852344    3.840390   -1.776824
  H     -1.984246    1.662008   -2.615426
  H     -1.377573    6.167409   -0.177225
  H     -1.752823    5.467899    1.421946
  H     -2.994706    5.473539    0.124850
  H      2.816124    0.737242   -2.244537
  H      4.974287    0.481048   -1.026621
  H      2.984947   -1.906532    1.994880
  H      0.819551   -1.626947    0.797230
  H      6.137996   -0.072236    1.128577
  H      5.315589   -1.069905    2.374908
  H      5.982442   -1.836779    0.906902

 Multiplicity           Mult            ....    1
 Number of Electrons    NEL             ....  162
 Basis Dimension        Dim             ....  417

ORBITAL ENERGIES
----------------

  NO   OCC          E(Eh)            E(eV)
   0   2.0000     -76.340115     -2077.3201
   1   2.0000      -9.925527      -270.0873
   2   2.0000      -9.925513      -270.0869
   3   2.0000      -9.925470      -270.0858
   4   2.0000      -9.918848      -269.9056
   5   2.0000      -9.918834      -269.9052
   6   2.0000      -9.918758      -269.9031
   7   2.0000      -9.918470      -269.8953
   8   2.0000      -9.918456      -269.8949
   9   2.0000      -9.918434      -269.8943
  10   2.0000      -9.917249      -269.8621
  11   2.0000      -9.917246      -269.8620
  12   2.0000      -9.917228      -269.8615
  13   2.0000      -9.916273      -269.8355
  14   2.0000      -9.916245      -269.8348
  15   2.0000      -9.916234      -269.8344
  16   2.0000      -9.915826      -269.8233
  17   2.0000      -9.915823      -269.8233
  18   2.0000      -9.915797      -269.8226
  19   2.0000      -9.915328      -269.8098
  20   2.0000      -9.915312      -269.8094
  21   2.0000      -9.915286      -269.8087
  22   2.0000      -6.308312      -171.6579
  23   2.0000      -4.529751      -123.2608
  24   2.0000      -4.529746      -123.2607
  25   2.0000      -4.526173      -123.1634
  26   2.0000      -0.775932       -21.1142
  27   2.0000      -0.769312       -20.9340
  28   2.0000      -0.769287       -20.9334
  29   2.0000      -0.709090       -19.2953
  30   2.0000      -0.690651       -18.7936
  31   2.0000      -0.690630       -18.7930
  32   2.0000      -0.664952       -18.0943
  33   2.0000      -0.664846       -18.0914
  34   2.0000      -0.664841       -18.0913
  35   2.0000      -0.635262       -17.2864
  36   2.0000      -0.608931       -16.5698
  37   2.0000      -0.608910       -16.5693
  38   2.0000      -0.553867       -15.0715
  39   2.0000      -0.540625       -14.7111
  40   2.0000      -0.540596       -14.7104
  41   2.0000      -0.540570       -14.7097
  42   2.0000      -0.515982       -14.0406
  43   2.0000      -0.515950       -14.0397
  44   2.0000      -0.495302       -13.4779
  45   2.0000      -0.446718       -12.1558
  46   2.0000      -0.446699       -12.1553
  47   2.0000      -0.419148       -11.4056
  48   2.0000      -0.414167       -11.2701
  49   2.0000      -0.414157       -11.2698
  50   2.0000      -0.413755       -11.2588
  51   2.0000      -0.395619       -10.7653
  52   2.0000      -0.395613       -10.7652
  53   2.0000      -0.386549       -10.5185
  54   2.0000      -0.375467       -10.2170
  55   2.0000      -0.375456       -10.2167
  56   2.0000      -0.375430       -10.2160
  57   2.0000      -0.369701       -10.0601
  58   2.0000      -0.369372       -10.0511
  59   2.0000      -0.369354       -10.0506
  60   2.0000      -0.352523        -9.5926
  61   2.0000      -0.352516        -9.5925
  62   2.0000      -0.342320        -9.3150
  63   2.0000      -0.340138        -9.2556
  64   2.0000      -0.340133        -9.2555
  65   2.0000      -0.323707        -8.8085
  66   2.0000      -0.316893        -8.6231
  67   2.0000      -0.316863        -8.6223
  68   2.0000      -0.313438        -8.5291
  69   2.0000      -0.296338        -8.0638
  70   2.0000      -0.296327        -8.0635
  71   2.0000      -0.295563        -8.0427
  72   2.0000      -0.282512        -7.6875
  73   2.0000      -0.282501        -7.6872
  74   2.0000      -0.238885        -6.5004
  75   2.0000      -0.232690        -6.3318
  76   2.0000      -0.227834        -6.1997
  77   2.0000      -0.227810        -6.1990
  78   2.0000      -0.220957        -6.0126
  79   2.0000      -0.220875        -6.0103
  80   2.0000      -0.185774        -5.0552
  81   0.0000      -0.052094        -1.4175
  82   0.0000      -0.052036        -1.4160
  83   0.0000      -0.051073        -1.3898
  84   0.0000      -0.037267        -1.0141
  85   0.0000      -0.035648        -0.9700

MULLIKEN ATOMIC CHARGES
-----------------------
   0 C :    0.010014
   1 C :   -0.040201
   2 C :   -0.024625
   3 C :    0.016086
   4 C :   -0.157961
   5 C :    0.009448
   6 C :   -0.019489
   7 P :    0.299263
   8 C :   -0.158116
   9 C :    0.009562
  10 C :   -0.019592
  11 C :   -0.040051
  12 C :   -0.024642
  13 C :    0.016022
  14 C :    0.009984
  15 C :   -0.158033
  16 C :    0.016219
  17 C :   -0.024538
  18 C :   -0.040298
  19 C :   -0.019559
  20 C :    0.009300
  21 C :    0.010004
  22 H :    0.034306
  23 H :    0.033809
  24 H :    0.053619
  25 H :   -0.013202
  26 H :    0.000138
  27 H :    0.013952
  28 H :   -0.015584
  29 H :    0.013948
  30 H :   -0.015512
  31 H :   -0.013173
  32 H :    0.000138
  33 H :    0.053631
  34 H :    0.034027
  35 H :    0.034140
  36 H :    0.000117
  37 H :   -0.013229
  38 H :   -0.015601
  39 H :    0.013980
  40 H :    0.034119
  41 H :    0.033956
  42 H :    0.053627
Sum of atomic charges:   -0.0000000

LOEWDIN ATOMIC CHARGES
----------------------
   0 C :   -0.063709
   1 C :   -0.027284
   2 C :   -0.035335
   3 C :   -0.033106
   4 C :   -0.178192
   5 C :   -0.034103
   6 C :   -0.035269
   7 P :    0.496869
   8 C :   -0.178221
   9 C :   -0.034137
  10 C :   -0.035248
  11 C :   -0.027305
  12 C :   -0.035340
  13 C :   -0.033103
  14 C :   -0.063713
  15 C :   -0.178117
  16 C :   -0.033114
  17 C :   -0.035325
  18 C :   -0.027338
  19 C :   -0.035247
  20 C :   -0.034220
  21 C :   -0.063708
  22 H :    0.036086
  23 H :    0.035944
  24 H :    0.044776
  25 H :    0.029604
  26 H :    0.030555
  27 H :    0.035370
  28 H :    0.029097
  29 H :    0.035353
  30 H :    0.029115
  31 H :    0.029602
  32 H :    0.030572
  33 H :    0.044774
  34 H :    0.036047
  35 H :    0.036011
  36 H :    0.030548
  37 H :    0.029594
  38 H :    0.029090
  39 H :    0.035346
  40 H :    0.036004
  41 H :    0.035995
  42 H :    0.044780

  Mayer bond orders larger than 0.100000
B(  0-C ,  1-C ) :   1.0719 B(  0-C , 22-H ) :   0.9541 B(  0-C , 23-H ) :   0.9542
B(  0-C , 24-H ) :   0.9466 B(  1-C ,  2-C ) :   1.3721 B(  1-C ,  6-C ) :   1.3757
B(  2-C ,  3-C ) :   1.3980 B(  2-C , 25-H ) :   0.9762 B(  3-C ,  4-C ) :   1.3540
B(  3-C , 26-H ) :   0.9702 B(  4-C ,  5-C ) :   1.3757 B(  4-C ,  7-P ) :   0.9333
B(  5-C ,  6-C ) :   1.3742 B(  5-C , 27-H ) :   0.9659 B(  6-C , 28-H ) :   0.9753
B(  7-P ,  8-C ) :   0.9333 B(  7-P , 15-C ) :   0.9329 B(  8-C ,  9-C ) :   1.3754
B(  8-C , 13-C ) :   1.3543 B(  9-C , 10-C ) :   1.3744 B(  9-C , 29-H ) :   0.9660
B( 10-C , 11-C ) :   1.3754 B( 10-C , 30-H ) :   0.9754 B( 11-C , 12-C ) :   1.3722
B( 11-C , 14-C ) :   1.0719 B( 12-C , 13-C ) :   1.3979 B( 12-C , 31-H ) :   0.9761
B( 13-C , 32-H ) :   0.9702 B( 14-C , 33-H ) :   0.9466 B( 14-C , 34-H ) :   0.9542
B( 14-C , 35-H ) :   0.9542 B( 15-C , 16-C ) :   1.3541 B( 15-C , 20-C ) :   1.3759
B( 16-C , 17-C ) :   1.3980 B( 16-C , 36-H ) :   0.9702 B( 17-C , 18-C ) :   1.3721
B( 17-C , 37-H ) :   0.9762 B( 18-C , 19-C ) :   1.3759 B( 18-C , 21-C ) :   1.0719
B( 19-C , 20-C ) :   1.3741 B( 19-C , 38-H ) :   0.9753 B( 20-C , 39-H ) :   0.9660
B( 21-C , 40-H ) :   0.9542 B( 21-C , 41-H ) :   0.9542 B( 21-C , 42-H ) :   0.9466

Dispersion correction           -0.096686058
FINAL SINGLE POINT ENERGY     -1153.686437869636

DIPOLE MOMENT
-------------

Method             : SCF
Type of density    : Electron Density
Multiplicity       :   1
Irrep              :   0
Energy             : -1153.5897518115332332 Eh
Relativity type    :
Basis              : AO
                                X                 Y                 Z
Electronic contribution:      0.688457490      -0.927909471     -11.419292876
Nuclear contribution   :     -0.731978663       0.984815159      12.123298194
                        -----------------------------------------
Total Dipole Moment    :     -0.043521173       0.056905688       0.704005318
                        -----------------------------------------
Magnitude (a.u.)       :      0.707641037
Magnitude (Debye)      :      1.798680572

Rotational constants in cm-1:             0.007689             0.007685             0.004462
Rotational constants in MHz :           230.516207           230.395201           133.771513

                             ****ORCA TERMINATED NORMALLY****
TOTAL RUN TIME: 0 days 0 hours 2 minutes 29 seconds 376 msec
