                         Program Version 6.0.0  -   RELEASE   -
|  1> ! RIJONX B3LYP def2-SVP D3BJ TIGHTSCF Opt
|  2> %pal
|  3> nprocs 6
|  4> end
|  5>
|  6> * xyz 0 1
|  7> C     -0.233815    1.589409   -0.238579
|  8> O     -1.507464    2.218849   -0.220496
|  9> P     -0.176268   -0.014496    0.658466
| 10> C      1.520881   -0.539231    0.184281
| 11> O      2.555214    0.196624    0.822542
| 12> C     -1.129033   -1.037181   -0.536049
| 13> O     -1.148269   -2.423739   -0.226548
| 14> H      0.480833    2.284633    0.213647
| 15> H      0.055577    1.464883   -1.286643
| 16> H     -1.778948    2.226238    0.713391
| 17> H      1.661369   -1.593377    0.444296
| 18> H      1.673246   -0.449772   -0.895753
| 19> H      2.337412    0.179902    1.770269
| 20> H     -0.729770   -0.932950   -1.549665
| 21> H     -2.168145   -0.693390   -0.561031
| 22> H     -1.412821   -2.476401    0.707873
| 23> **                         ****END OF INPUT****
 Total Charge           Charge          ....    0
 Multiplicity           Mult            ....    1
 Number of Electrons    NEL             ....   66
Dispersion correction           -0.024567996
FINAL SINGLE POINT ENERGY      -686.133827950781
Dispersion correction             ... done (  0.1 sec)
Dispersion correction           -0.024370716
FINAL SINGLE POINT ENERGY      -686.139042694960
Dispersion correction             ... done (  0.1 sec)
Dispersion correction           -0.024241888
FINAL SINGLE POINT ENERGY      -686.141061839631
Dispersion correction             ... done (  0.1 sec)
FINAL SINGLE POINT ENERGY      -686.141392044042
FINAL SINGLE POINT ENERGY      -686.141450740847
FINAL SINGLE POINT ENERGY      -686.141491271804
Dispersion correction             ... done (  0.1 sec)
Dispersion correction           -0.024102293
FINAL SINGLE POINT ENERGY      -686.141496126160
Dispersion correction             ... done (  0.1 sec)
Dispersion correction           -0.024108838
FINAL SINGLE POINT ENERGY      -686.141498651465
Dispersion correction             ... done (  0.1 sec)
                    ***********************HURRAY********************

CARTESIAN COORDINATES (ANGSTROEM)
---------------------------------
  C     -0.312332    1.611418   -0.285771
  O     -1.569487    2.224312   -0.102985
  P     -0.172442   -0.014075    0.641277
  C      1.587242   -0.473026    0.177487
  O      2.541272    0.216836    0.954201
  C     -1.097858   -1.123929   -0.555983
  O     -1.171514   -2.456734   -0.100332
  H      0.539751    2.240544    0.040790
  H     -0.193028    1.442726   -1.369843
  H     -1.685026    2.390286    0.842997
  H      1.662567   -1.575854    0.258368
  H      1.783161   -0.211773   -0.876619
  H      2.390560   -0.010959    1.882193
  H     -0.580752   -1.146883   -1.530618
  H     -2.088847   -0.657159   -0.724874
  H     -1.633268   -2.455727    0.749713

 Multiplicity           Mult            ....    1
 Number of Electrons    NEL             ....   66
 Basis Dimension        Dim             ....  147

ORBITAL ENERGIES
----------------

  NO   OCC          E(Eh)            E(eV)
   0   2.0000     -77.037479     -2096.2964
   1   2.0000     -19.136373      -520.7272
   2   2.0000     -19.136346      -520.7264
   3   2.0000     -19.136302      -520.7253
   4   2.0000     -10.236446      -278.5479
   5   2.0000     -10.236427      -278.5473
   6   2.0000     -10.236362      -278.5456
   7   2.0000      -6.539074      -177.9373
   8   2.0000      -4.704137      -128.0061
   9   2.0000      -4.704135      -128.0060
  10   2.0000      -4.701256      -127.9277
  11   2.0000      -1.014195       -27.5977
  12   2.0000      -1.011982       -27.5374
  13   2.0000      -1.011944       -27.5364
  14   2.0000      -0.737032       -20.0556
  15   2.0000      -0.665194       -18.1008
  16   2.0000      -0.665153       -18.0997
  17   2.0000      -0.570602       -15.5269
  18   2.0000      -0.515287       -14.0217
  19   2.0000      -0.515270       -14.0212
  20   2.0000      -0.478824       -13.0295
  21   2.0000      -0.454118       -12.3572
  22   2.0000      -0.432533       -11.7698
  23   2.0000      -0.432499       -11.7689
  24   2.0000      -0.417194       -11.3524
  25   2.0000      -0.417168       -11.3517
  26   2.0000      -0.356505        -9.7010
  27   2.0000      -0.330917        -9.0047
  28   2.0000      -0.330892        -9.0040
  29   2.0000      -0.302796        -8.2395
  30   2.0000      -0.255343        -6.9482
  31   2.0000      -0.255320        -6.9476
  32   2.0000      -0.241397        -6.5687
  33   0.0000       0.023328         0.6348
  34   0.0000       0.023387         0.6364
  35   0.0000       0.062030         1.6879
  36   0.0000       0.066082         1.7982
  37   0.0000       0.092390         2.5141

MULLIKEN ATOMIC CHARGES
-----------------------
   0 C :    0.078792
   1 O :   -0.311263
   2 P :    0.023285
   3 C :    0.078720
   4 O :   -0.311207
   5 C :    0.078844
   6 O :   -0.311262
   7 H :    0.030613
   8 H :    0.026010
   9 H :    0.168039
  10 H :    0.030613
  11 H :    0.026010
  12 H :    0.168061
  13 H :    0.026024
  14 H :    0.030643
  15 H :    0.168079
Sum of atomic charges:   -0.0000000

LOEWDIN ATOMIC CHARGES
----------------------
   0 C :   -0.066011
   1 O :   -0.146424
   2 P :    0.358933
   3 C :   -0.065968
   4 O :   -0.146361
   5 C :   -0.065991
   6 O :   -0.146378
   7 H :    0.005954
   8 H :    0.013274
   9 H :    0.073507
  10 H :    0.005935
  11 H :    0.013258
  12 H :    0.073519
  13 H :    0.013269
  14 H :    0.005957
  15 H :    0.073528

  Mayer bond orders larger than 0.100000
B(  0-C ,  1-O ) :   1.0185 B(  0-C ,  2-P ) :   0.9466 B(  0-C ,  7-H ) :   0.9400
B(  0-C ,  8-H ) :   0.9357 B(  1-O ,  9-H ) :   0.9771 B(  2-P ,  3-C ) :   0.9467
B(  2-P ,  5-C ) :   0.9467 B(  3-C ,  4-O ) :   1.0184 B(  3-C , 10-H ) :   0.9400
B(  3-C , 11-H ) :   0.9357 B(  4-O , 12-H ) :   0.9771 B(  5-C ,  6-O ) :   1.0184
B(  5-C , 13-H ) :   0.9357 B(  5-C , 14-H ) :   0.9400 B(  6-O , 15-H ) :   0.9770

Dispersion correction           -0.024110682
FINAL SINGLE POINT ENERGY      -686.141499078422

DIPOLE MOMENT
-------------

Method             : SCF
Type of density    : Electron Density
Multiplicity       :   1
Irrep              :   0
Energy             :  -686.1173883964739844 Eh
Relativity type    :
Basis              : AO
                                X                 Y                 Z
Electronic contribution:     -0.883430119      -0.072068752       3.294362350
Nuclear contribution   :      0.714491098       0.056983028      -2.662595514
                        -----------------------------------------
Total Dipole Moment    :     -0.168939020      -0.015085724       0.631766836
                        -----------------------------------------
Magnitude (a.u.)       :      0.654138599
Magnitude (Debye)      :      1.662688183

Rotational constants in cm-1:             0.061899             0.061834             0.033879
Rotational constants in MHz :          1855.689086          1853.749103          1015.673484

                             ****ORCA TERMINATED NORMALLY****
TOTAL RUN TIME: 0 days 0 hours 0 minutes 50 seconds 518 msec
