                         Program Version 6.0.0  -   RELEASE   -
|  1> ! RIJONX B3LYP def2-SVP D3BJ TIGHTSCF Opt
|  2> %pal
|  3> nprocs 6
|  4> end
|  5>
|  6> * xyz 0 1
|  7> C     -2.286744   -0.828031   -0.955374
|  8> P     -1.554620   -0.530040    0.699619
|  9> C     -2.106181    1.196557    0.979709
| 10> C      0.207234   -0.312296    0.307404
| 11> C      0.675464    0.578137   -0.667905
| 12> C      2.043938    0.702915   -0.926149
| 13> C      2.962990   -0.061494   -0.212141
| 14> C      2.514525   -0.950893    0.760243
| 15> C      1.146475   -1.074825    1.017561
| 16> H     -3.374958   -0.908953   -0.872489
| 17> H     -2.067044   -0.026141   -1.665760
| 18> H     -1.914153   -1.767431   -1.374953
| 19> H     -1.899710    1.850122    0.127554
| 20> H     -3.185228    1.218423    1.160839
| 21> H     -1.612244    1.617769    1.860590
| 22> H     -0.014201    1.189569   -1.243264
| 23> H      2.390456    1.398357   -1.686091
| 24> H      4.026477    0.035582   -0.412944
| 25> H      3.226816   -1.550290    1.320898
| 26> H      0.820708   -1.777038    1.782651
| 27> **                         ****END OF INPUT****
 Total Charge           Charge          ....    0
 Multiplicity           Mult            ....    1
 Number of Electrons    NEL             ....   74
Dispersion correction           -0.039056842
FINAL SINGLE POINT ENERGY      -652.282611398013
Dispersion correction             ... done (  0.1 sec)
Dispersion correction           -0.038999955
FINAL SINGLE POINT ENERGY      -652.284172228214
Dispersion correction             ... done (  0.1 sec)
Dispersion correction           -0.038931088
FINAL SINGLE POINT ENERGY      -652.284574052129
Dispersion correction             ... done (  0.1 sec)
Dispersion correction           -0.038904141
FINAL SINGLE POINT ENERGY      -652.284627855227
Dispersion correction             ... done (  0.1 sec)
Dispersion correction           -0.038904295
FINAL SINGLE POINT ENERGY      -652.284635533112
Dispersion correction             ... done (  0.1 sec)
                    ***********************HURRAY********************

CARTESIAN COORDINATES (ANGSTROEM)
---------------------------------
  C     -2.289022   -0.830785   -0.973144
  P     -1.582388   -0.559807    0.729991
  C     -2.106882    1.210220    0.987286
  C      0.211711   -0.321185    0.314942
  C      0.670479    0.572877   -0.667368
  C      2.034551    0.705617   -0.933355
  C      2.966034   -0.055938   -0.218499
  C      2.525045   -0.948207    0.761193
  C      1.157161   -1.078302    1.024175
  H     -3.387521   -0.873138   -0.899891
  H     -2.013441   -0.038014   -1.687363
  H     -1.935411   -1.797487   -1.363065
  H     -1.845792    1.867423    0.141849
  H     -3.198646    1.239950    1.132391
  H     -1.630624    1.600828    1.899529
  H     -0.042975    1.176188   -1.235467
  H      2.374015    1.405729   -1.701418
  H      4.034057    0.047758   -0.426715
  H      3.246952   -1.546167    1.323605
  H      0.812696   -1.777562    1.791322

 Multiplicity           Mult            ....    1
 Number of Electrons    NEL             ....   74
 Basis Dimension        Dim             ....  185

ORBITAL ENERGIES
----------------

  NO   OCC          E(Eh)            E(eV)
   0   2.0000     -77.039929     -2096.3630
   1   2.0000     -10.191824      -277.3336
   2   2.0000     -10.191600      -277.3275
   3   2.0000     -10.190851      -277.3072
   4   2.0000     -10.189861      -277.2802
   5   2.0000     -10.189511      -277.2707
   6   2.0000     -10.187292      -277.2103
   7   2.0000     -10.180055      -277.0134
   8   2.0000     -10.180018      -277.0124
   9   2.0000      -6.537047      -177.8821
  10   2.0000      -4.702577      -127.9636
  11   2.0000      -4.702242      -127.9545
  12   2.0000      -4.699378      -127.8766
  13   2.0000      -0.845587       -23.0096
  14   2.0000      -0.755666       -20.5627
  15   2.0000      -0.736639       -20.0450
  16   2.0000      -0.715145       -19.4601
  17   2.0000      -0.675656       -18.3855
  18   2.0000      -0.602976       -16.4078
  19   2.0000      -0.595890       -16.2150
  20   2.0000      -0.541177       -14.7262
  21   2.0000      -0.499722       -13.5981
  22   2.0000      -0.453116       -12.3299
  23   2.0000      -0.444528       -12.0962
  24   2.0000      -0.426738       -11.6121
  25   2.0000      -0.421203       -11.4615
  26   2.0000      -0.412026       -11.2118
  27   2.0000      -0.402329       -10.9479
  28   2.0000      -0.394711       -10.7406
  29   2.0000      -0.380558       -10.3555
  30   2.0000      -0.367703       -10.0057
  31   2.0000      -0.345153        -9.3921
  32   2.0000      -0.329783        -8.9738
  33   2.0000      -0.315775        -8.5927
  34   2.0000      -0.255488        -6.9522
  35   2.0000      -0.252581        -6.8731
  36   2.0000      -0.226042        -6.1509
  37   0.0000      -0.020137        -0.5480
  38   0.0000      -0.008938        -0.2432
  39   0.0000       0.057248         1.5578
  40   0.0000       0.058199         1.5837
  41   0.0000       0.071183         1.9370

MULLIKEN ATOMIC CHARGES
-----------------------
   0 C :   -0.144434
   1 P :    0.179771
   2 C :   -0.144132
   3 C :   -0.116330
   4 C :    0.003368
   5 C :    0.024445
   6 C :    0.021797
   7 C :    0.021906
   8 C :    0.010138
   9 H :    0.040356
  10 H :    0.028975
  11 H :    0.048405
  12 H :    0.028953
  13 H :    0.040327
  14 H :    0.048261
  15 H :   -0.022941
  16 H :   -0.018896
  17 H :   -0.014902
  18 H :   -0.015629
  19 H :   -0.019437
Sum of atomic charges:   -0.0000000

LOEWDIN ATOMIC CHARGES
----------------------
   0 C :   -0.211071
   1 P :    0.464349
   2 C :   -0.211069
   3 C :   -0.177426
   4 C :   -0.027657
   5 C :   -0.026294
   6 C :   -0.020990
   7 C :   -0.026388
   8 C :   -0.029524
   9 H :    0.026062
  10 H :    0.015908
  11 H :    0.029088
  12 H :    0.015964
  13 H :    0.026019
  14 H :    0.029049
  15 H :    0.020194
  16 H :    0.026277
  17 H :    0.026985
  18 H :    0.027163
  19 H :    0.023363

  Mayer bond orders larger than 0.100000
B(  0-C ,  1-P ) :   0.9920 B(  0-C ,  9-H ) :   0.9662 B(  0-C , 10-H ) :   0.9548
B(  0-C , 11-H ) :   0.9672 B(  1-P ,  2-C ) :   0.9919 B(  1-P ,  3-C ) :   0.9099
B(  2-C , 12-H ) :   0.9548 B(  2-C , 13-H ) :   0.9663 B(  2-C , 14-H ) :   0.9672
B(  3-C ,  4-C ) :   1.3613 B(  3-C ,  8-C ) :   1.4075 B(  4-C ,  5-C ) :   1.4131
B(  4-C , 15-H ) :   0.9784 B(  5-C ,  6-C ) :   1.3721 B(  5-C , 16-H ) :   0.9827
B(  6-C ,  7-C ) :   1.3936 B(  6-C , 17-H ) :   0.9845 B(  7-C ,  8-C ) :   1.3784
B(  7-C , 18-H ) :   0.9856 B(  8-C , 19-H ) :   0.9848

Dispersion correction           -0.038909204
FINAL SINGLE POINT ENERGY      -652.284637415094

DIPOLE MOMENT
-------------

Method             : SCF
Type of density    : Electron Density
Multiplicity       :   1
Irrep              :   0
Energy             :  -652.2457282114550026 Eh
Relativity type    :
Basis              : AO
                                X                 Y                 Z
Electronic contribution:      2.722716941      -3.133645083       3.008209446
Nuclear contribution   :     -2.596415400       3.429463617      -3.328333002
                        -----------------------------------------
Total Dipole Moment    :      0.126301541       0.295818534      -0.320123556
                        -----------------------------------------
Magnitude (a.u.)       :      0.453805879
Magnitude (Debye)      :      1.153482875

Rotational constants in cm-1:             0.094961             0.028754             0.026802
Rotational constants in MHz :          2846.850487           862.035926           803.502881

                             ****ORCA TERMINATED NORMALLY****
TOTAL RUN TIME: 0 days 0 hours 0 minutes 58 seconds 916 msec
