                         Program Version 6.0.0  -   RELEASE   -
|  1> ! RIJONX B3LYP def2-SVP D3BJ TIGHTSCF Opt
|  2> %pal
|  3> nprocs 6
|  4> end
|  5>
|  6> * xyz 0 1
|  7> C      3.054847   -2.011051    3.202529
|  8> C      2.376511   -1.747678    1.870531
|  9> O      2.510350   -0.363107    1.567473
| 10> Si     1.910881    0.194469    0.111630
| 11> C      0.023695    0.004218    0.040325
| 12> C     -0.726216    0.610434    1.225227
| 13> P     -2.566003    0.526060    1.181937
| 14> C     -2.876405   -1.228397    0.816214
| 15> C     -2.856534   -1.769853   -0.476649
| 16> C     -3.089940   -3.132499   -0.689562
| 17> C     -3.344159   -3.976705    0.387485
| 18> C     -3.366762   -3.458456    1.678191
| 19> C     -3.133618   -2.095727    1.889708
| 20> C     -3.104283    1.439993   -0.294192
| 21> C     -4.385902    1.208554   -0.822842
| 22> C     -4.856896    1.921476   -1.932041
| 23> C     -4.058399    2.895762   -2.522639
| 24> C     -2.795905    3.159684   -2.000531
| 25> C     -2.326745    2.442498   -0.892852
| 26> O      2.613601   -0.703382   -1.109455
| 27> C      3.999123   -0.515175   -1.377368
| 28> C      4.406062   -1.483146   -2.474416
| 29> O      2.376924    1.781011   -0.099217
| 30> C      2.460161    2.660481    1.013268
| 31> C      3.175989    3.923779    0.560510
| 32> H      4.116082   -1.741406    3.155512
| 33> H      2.969529   -3.064979    3.479067
| 34> H      2.603816   -1.402223    3.992520
| 35> H      1.316716   -2.022613    1.945789
| 36> H      2.852753   -2.363050    1.098418
| 37> H     -0.165818   -1.073936   -0.012877
| 38> H     -0.314203    0.431705   -0.909918
| 39> H     -0.407301    0.105763    2.147713
| 40> H     -0.450110    1.662003    1.358511
| 41> H     -2.647269   -1.139895   -1.340522
| 42> H     -3.067123   -3.531400   -1.700113
| 43> H     -3.526066   -5.034957    0.222042
| 44> H     -3.567483   -4.112764    2.525626
| 45> H     -3.158181   -1.717410    2.911079
| 46> H     -5.042509    0.464888   -0.371527
| 47> H     -5.847412    1.716378   -2.326042
| 48> H     -4.421858    3.456057   -3.379660
| 49> H     -2.169857    3.926745   -2.451270
| 50> H     -1.338859    2.694458   -0.510147
| 51> H      4.598322   -0.717418   -0.479462
| 52> H      4.189405    0.512107   -1.715692
| 53> H      4.198140   -2.516928   -2.176036
| 54> H      5.473799   -1.386341   -2.701222
| 55> H      3.830645   -1.290654   -3.387959
| 56> H      1.453726    2.927286    1.359585
| 57> H      3.018117    2.211459    1.845065
| 58> H      2.643785    4.397749   -0.273424
| 59> H      4.183122    3.684132    0.202924
| 60> H      3.255715    4.642001    1.381167
| 61> **                         ****END OF INPUT****
 Total Charge           Charge          ....    0
 Multiplicity           Mult            ....    1
 Number of Electrons    NEL             ....  202
Dispersion correction           -0.115915679
FINAL SINGLE POINT ENERGY     -1634.711268987223
Dispersion correction             ... done (  0.1 sec)
Dispersion correction           -0.116742241
FINAL SINGLE POINT ENERGY     -1634.717129404985
Dispersion correction             ... done (  0.1 sec)
Dispersion correction           -0.116642007
FINAL SINGLE POINT ENERGY     -1634.719194725007
Dispersion correction             ... done (  0.1 sec)
FINAL SINGLE POINT ENERGY     -1634.719091879623
FINAL SINGLE POINT ENERGY     -1634.720286955827
FINAL SINGLE POINT ENERGY     -1634.720433995257
FINAL SINGLE POINT ENERGY     -1634.720591314079
FINAL SINGLE POINT ENERGY     -1634.720670254241
FINAL SINGLE POINT ENERGY     -1634.720719821471
FINAL SINGLE POINT ENERGY     -1634.720830740399
FINAL SINGLE POINT ENERGY     -1634.722963362827
FINAL SINGLE POINT ENERGY     -1634.722966788683
FINAL SINGLE POINT ENERGY     -1634.722967880226
FINAL SINGLE POINT ENERGY     -1634.722968447291
FINAL SINGLE POINT ENERGY     -1634.722968775717
FINAL SINGLE POINT ENERGY     -1634.722709428858
FINAL SINGLE POINT ENERGY     -1634.722946937580
Dispersion correction             ... done (  0.1 sec)
Dispersion correction           -0.118691924
FINAL SINGLE POINT ENERGY     -1634.722960826359
Dispersion correction             ... done (  0.1 sec)
Dispersion correction           -0.118650686
FINAL SINGLE POINT ENERGY     -1634.722968691275
Dispersion correction             ... done (  0.1 sec)
                    ***********************HURRAY********************

CARTESIAN COORDINATES (ANGSTROEM)
---------------------------------
  C      3.680014   -1.088758    3.379485
  C      2.676622   -1.256510    2.253660
  O      2.436361    0.000122    1.643776
  Si     1.588374    0.210166    0.222629
  C     -0.148651   -0.440397    0.297280
  C     -0.924036    0.183227    1.469010
  P     -2.791841    0.254941    1.349170
  C     -3.131258   -1.439854    0.685349
  C     -3.132315   -1.774039   -0.678922
  C     -3.348406   -3.092791   -1.087187
  C     -3.560834   -4.098867   -0.139611
  C     -3.564970   -3.778094    1.221148
  C     -3.360949   -2.456947    1.627822
  C     -3.038562    1.308348   -0.146250
  C     -4.333321    1.361565   -0.697877
  C     -4.620433    2.192810   -1.780509
  C     -3.619959    3.004793   -2.326848
  C     -2.335648    2.972322   -1.780612
  C     -2.043151    2.132153   -0.700143
  O      2.353547   -0.542699   -1.038472
  C      3.651101   -0.237763   -1.524438
  C      4.014268   -1.210314   -2.631094
  O      1.535960    1.854749    0.009137
  C      2.151794    2.859936    0.801127
  C      3.639802    2.985866    0.514692
  H      4.635873   -0.704192    2.989879
  H      3.868583   -2.051125    3.881961
  H      3.302475   -0.371905    4.125563
  H      1.728800   -1.672098    2.648446
  H      3.056702   -1.979394    1.506409
  H     -0.163673   -1.539738    0.359264
  H     -0.616529   -0.195119   -0.670087
  H     -0.704283   -0.354890    2.405220
  H     -0.612851    1.225190    1.656076
  H     -2.965020   -0.997337   -1.427546
  H     -3.346286   -3.336599   -2.152980
  H     -3.728947   -5.129880   -0.461441
  H     -3.739185   -4.557069    1.968213
  H     -3.383480   -2.206419    2.692909
  H     -5.125194    0.736386   -0.274881
  H     -5.631167    2.211705   -2.196815
  H     -3.843236    3.659465   -3.173125
  H     -1.544216    3.599579   -2.199306
  H     -1.022719    2.124677   -0.313867
  H      4.389959   -0.298690   -0.702366
  H      3.674265    0.801493   -1.901430
  H      4.008786   -2.245000   -2.253397
  H      5.016647   -0.988521   -3.031598
  H      3.285163   -1.144078   -3.453768
  H      1.635255    3.806954    0.570743
  H      1.994773    2.647051    1.873457
  H      3.815492    3.180723   -0.555354
  H      4.164042    2.059154    0.795476
  H      4.076462    3.815714    1.094433

 Multiplicity           Mult            ....    1
 Number of Electrons    NEL             ....  202
 Basis Dimension        Dim             ....  503

ORBITAL ENERGIES
----------------

  NO   OCC          E(Eh)            E(eV)
   0   2.0000     -77.042206     -2096.4250
   1   2.0000     -66.161445     -1800.3444
   2   2.0000     -19.122620      -520.3529
   3   2.0000     -19.120489      -520.2950
   4   2.0000     -19.119751      -520.2749
   5   2.0000     -10.238706      -278.6093
   6   2.0000     -10.234214      -278.4871
   7   2.0000     -10.233154      -278.4583
   8   2.0000     -10.189516      -277.2708
   9   2.0000     -10.188879      -277.2535
  10   2.0000     -10.188610      -277.2462
  11   2.0000     -10.188145      -277.2335
  12   2.0000     -10.187650      -277.2200
  13   2.0000     -10.187329      -277.2113
  14   2.0000     -10.186724      -277.1949
  15   2.0000     -10.186246      -277.1819
  16   2.0000     -10.185550      -277.1629
  17   2.0000     -10.185161      -277.1523
  18   2.0000     -10.184534      -277.1353
  19   2.0000     -10.184031      -277.1216
  20   2.0000     -10.183102      -277.0963
  21   2.0000     -10.180399      -277.0227
  22   2.0000     -10.176657      -276.9209
  23   2.0000     -10.176525      -276.9173
  24   2.0000     -10.167481      -276.6712
  25   2.0000      -6.538642      -177.9255
  26   2.0000      -5.316514      -144.6697
  27   2.0000      -4.704180      -128.0072
  28   2.0000      -4.703902      -127.9997
  29   2.0000      -4.701103      -127.9235
  30   2.0000      -3.680681      -100.1564
  31   2.0000      -3.680207      -100.1435
  32   2.0000      -3.676548      -100.0440
  33   2.0000      -1.009713       -27.4757
  34   2.0000      -0.983654       -26.7666
  35   2.0000      -0.981841       -26.7173
  36   2.0000      -0.845346       -23.0030
  37   2.0000      -0.838888       -22.8273
  38   2.0000      -0.770297       -20.9608
  39   2.0000      -0.746171       -20.3043
  40   2.0000      -0.737631       -20.0720
  41   2.0000      -0.735100       -20.0031
  42   2.0000      -0.734383       -19.9836
  43   2.0000      -0.732842       -19.9416
  44   2.0000      -0.728388       -19.8204
  45   2.0000      -0.728043       -19.8111
  46   2.0000      -0.646684       -17.5972
  47   2.0000      -0.619216       -16.8497
  48   2.0000      -0.607867       -16.5409
  49   2.0000      -0.605189       -16.4680
  50   2.0000      -0.599461       -16.3122
  51   2.0000      -0.593981       -16.1630
  52   2.0000      -0.589789       -16.0490
  53   2.0000      -0.585271       -15.9260
  54   2.0000      -0.544469       -14.8158
  55   2.0000      -0.530033       -14.4229
  56   2.0000      -0.511145       -13.9090
  57   2.0000      -0.496597       -13.5131
  58   2.0000      -0.491790       -13.3823
  59   2.0000      -0.487545       -13.2668
  60   2.0000      -0.471904       -12.8412
  61   2.0000      -0.462350       -12.5812
  62   2.0000      -0.461887       -12.5686
  63   2.0000      -0.453025       -12.3274
  64   2.0000      -0.450347       -12.2546
  65   2.0000      -0.443590       -12.0707
  66   2.0000      -0.441144       -12.0041
  67   2.0000      -0.435144       -11.8409
  68   2.0000      -0.427279       -11.6269
  69   2.0000      -0.417917       -11.3721
  70   2.0000      -0.416023       -11.3206
  71   2.0000      -0.412452       -11.2234
  72   2.0000      -0.410217       -11.1626
  73   2.0000      -0.399721       -10.8770
  74   2.0000      -0.399263       -10.8645
  75   2.0000      -0.387917       -10.5558
  76   2.0000      -0.383082       -10.4242
  77   2.0000      -0.379067       -10.3149
  78   2.0000      -0.375892       -10.2285
  79   2.0000      -0.370677       -10.0866
  80   2.0000      -0.369296       -10.0490
  81   2.0000      -0.367017        -9.9870
  82   2.0000      -0.364920        -9.9300
  83   2.0000      -0.363071        -9.8797
  84   2.0000      -0.356158        -9.6916
  85   2.0000      -0.347267        -9.4496
  86   2.0000      -0.341597        -9.2953
  87   2.0000      -0.339393        -9.2353
  88   2.0000      -0.325081        -8.8459
  89   2.0000      -0.316867        -8.6224
  90   2.0000      -0.313713        -8.5366
  91   2.0000      -0.300209        -8.1691
  92   2.0000      -0.294164        -8.0046
  93   2.0000      -0.287166        -7.8142
  94   2.0000      -0.278646        -7.5823
  95   2.0000      -0.274647        -7.4735
  96   2.0000      -0.265171        -7.2157
  97   2.0000      -0.255330        -6.9479
  98   2.0000      -0.252273        -6.8647
  99   2.0000      -0.248420        -6.7599
 100   2.0000      -0.208847        -5.6830
 101   0.0000      -0.018631        -0.5070
 102   0.0000      -0.012561        -0.3418
 103   0.0000      -0.008901        -0.2422
 104   0.0000       0.000364         0.0099
 105   0.0000       0.041075         1.1177

MULLIKEN ATOMIC CHARGES
-----------------------
   0 C :    0.000576
   1 C :    0.194874
   2 O :   -0.511910
   3 Si:    0.880350
   4 C :   -0.155523
   5 C :   -0.154570
   6 P :    0.288602
   7 C :   -0.138603
   8 C :    0.010895
   9 C :    0.024212
  10 C :    0.021984
  11 C :    0.021366
  12 C :    0.014312
  13 C :   -0.131949
  14 C :    0.009107
  15 C :    0.020356
  16 C :    0.019514
  17 C :    0.024409
  18 C :   -0.015713
  19 O :   -0.479045
  20 C :    0.194772
  21 C :    0.006091
  22 O :   -0.505829
  23 C :    0.227631
  24 C :   -0.036823
  25 H :    0.016867
  26 H :    0.008469
  27 H :    0.019432
  28 H :   -0.000512
  29 H :    0.003969
  30 H :    0.043892
  31 H :    0.048908
  32 H :    0.035334
  33 H :    0.049446
  34 H :    0.004571
  35 H :   -0.018579
  36 H :   -0.016906
  37 H :   -0.018028
  38 H :   -0.020387
  39 H :   -0.016993
  40 H :   -0.018338
  41 H :   -0.018888
  42 H :   -0.019753
  43 H :   -0.013464
  44 H :   -0.000287
  45 H :    0.004966
  46 H :    0.015352
  47 H :    0.005494
  48 H :    0.020116
  49 H :   -0.000161
  50 H :    0.004213
  51 H :    0.021092
  52 H :    0.022435
  53 H :    0.008655
Sum of atomic charges:   -0.0000000

LOEWDIN ATOMIC CHARGES
----------------------
   0 C :   -0.064625
   1 C :    0.081702
   2 O :   -0.268136
   3 Si:    0.606444
   4 C :   -0.211647
   5 C :   -0.176287
   6 P :    0.496209
   7 C :   -0.171328
   8 C :   -0.027056
   9 C :   -0.025742
  10 C :   -0.024403
  11 C :   -0.027748
  12 C :   -0.034359
  13 C :   -0.176056
  14 C :   -0.030709
  15 C :   -0.026825
  16 C :   -0.028309
  17 C :   -0.023610
  18 C :   -0.038436
  19 O :   -0.257353
  20 C :    0.083379
  21 C :   -0.064430
  22 O :   -0.260497
  23 C :    0.086752
  24 C :   -0.073568
  25 H :    0.024622
  26 H :    0.026791
  27 H :    0.026270
  28 H :    0.006253
  29 H :    0.007046
  30 H :    0.037348
  31 H :    0.037279
  32 H :    0.025692
  33 H :    0.023275
  34 H :    0.027703
  35 H :    0.026826
  36 H :    0.026269
  37 H :    0.026394
  38 H :    0.021812
  39 H :    0.024437
  40 H :    0.026468
  41 H :    0.025588
  42 H :    0.027114
  43 H :    0.024475
  44 H :    0.004710
  45 H :    0.008737
  46 H :    0.024576
  47 H :    0.025783
  48 H :    0.026890
  49 H :    0.013425
  50 H :    0.008147
  51 H :    0.022714
  52 H :    0.022450
  53 H :    0.027544

  Mayer bond orders larger than 0.100000
B(  0-C ,  1-C ) :   1.1139 B(  0-C , 25-H ) :   0.9696 B(  0-C , 26-H ) :   0.9571
B(  0-C , 27-H ) :   0.9678 B(  1-C ,  2-O ) :   0.9603 B(  1-C , 28-H ) :   0.9446
B(  1-C , 29-H ) :   0.9388 B(  2-O ,  3-Si) :   1.0310 B(  3-Si,  4-C ) :   0.9691
B(  3-Si, 19-O ) :   1.1330 B(  3-Si, 22-O ) :   1.0460 B(  4-C ,  5-C ) :   1.0060
B(  4-C , 30-H ) :   0.9276 B(  4-C , 31-H ) :   0.9281 B(  5-C ,  6-P ) :   0.9765
B(  5-C , 32-H ) :   0.9429 B(  5-C , 33-H ) :   0.9300 B(  6-P ,  7-C ) :   0.9305
B(  6-P , 13-C ) :   0.9149 B(  7-C ,  8-C ) :   1.3840 B(  7-C , 12-C ) :   1.3780
B(  8-C ,  9-C ) :   1.3959 B(  8-C , 34-H ) :   0.9729 B(  9-C , 10-C ) :   1.3776
B(  9-C , 35-H ) :   0.9829 B( 10-C , 11-C ) :   1.3823 B( 10-C , 36-H ) :   0.9844
B( 11-C , 12-C ) :   1.3962 B( 11-C , 37-H ) :   0.9846 B( 12-C , 38-H ) :   0.9803
B( 13-C , 14-C ) :   1.3585 B( 13-C , 18-C ) :   1.3785 B( 14-C , 15-C ) :   1.4194
B( 14-C , 39-H ) :   0.9808 B( 15-C , 16-C ) :   1.3671 B( 15-C , 40-H ) :   0.9844
B( 16-C , 17-C ) :   1.3856 B( 16-C , 41-H ) :   0.9847 B( 17-C , 18-C ) :   1.3980
B( 17-C , 42-H ) :   0.9825 B( 18-C , 43-H ) :   0.9731 B( 19-O , 20-C ) :   0.9420
B( 20-C , 21-C ) :   1.1133 B( 20-C , 44-H ) :   0.9443 B( 20-C , 45-H ) :   0.9454
B( 21-C , 46-H ) :   0.9686 B( 21-C , 47-H ) :   0.9565 B( 21-C , 48-H ) :   0.9677
B( 22-O , 23-C ) :   0.9429 B( 23-C , 24-C ) :   1.1177 B( 23-C , 49-H ) :   0.9505
B( 23-C , 50-H ) :   0.9425 B( 24-C , 51-H ) :   0.9636 B( 24-C , 52-H ) :   0.9642
B( 24-C , 53-H ) :   0.9553

Dispersion correction           -0.118649805
FINAL SINGLE POINT ENERGY     -1634.722968813258

DIPOLE MOMENT
-------------

Method             : SCF
Type of density    : Electron Density
Multiplicity       :   1
Irrep              :   0
Energy             : -1634.6043190080326895 Eh
Relativity type    :
Basis              : AO
                                X                 Y                 Z
Electronic contribution:    -29.496870524       0.639032065       0.883467302
Nuclear contribution   :     30.345163728      -0.995697119      -0.910485568
                        -----------------------------------------
Total Dipole Moment    :      0.848293203      -0.356665054      -0.027018266
                        -----------------------------------------
Magnitude (a.u.)       :      0.920620066
Magnitude (Debye)      :      2.340030243

Rotational constants in cm-1:             0.007485             0.004184             0.003422
Rotational constants in MHz :           224.382408           125.425751           102.575865

                             ****ORCA TERMINATED NORMALLY****
TOTAL RUN TIME: 0 days 1 hours 9 minutes 49 seconds 809 msec
