                         Program Version 6.0.0  -   RELEASE   -
|  1> ! RIJCOSX M062X def2-TZVP D3ZERO NormalSCF
|  2> %pal
|  3> nprocs 6
|  4> end
|  5>
|  6> * xyz 0 1
|  7>   C          -0.35273964679159      1.54510769852305      1.01171239644614
|  8>   O          -1.16928259528478      2.35702022755854      0.19881312673866
|  9>   P           0.01437919029607      0.02939661131503      0.01866975206089
| 10>   O           0.24612354410553      0.48641259108342     -1.43834794764297
| 11>   C          -1.41630081229409     -1.14156904600821      0.00038251288544
| 12>   O          -1.26328919265428     -1.92782365130406     -1.15939824769456
| 13>   C           1.56798544967720     -0.79866523320990      0.58335347896587
| 14>   O           2.63110566799397     -0.03872528413212      0.05528402897652
| 15>   H          -0.88402065223685      1.30657389555207      1.95800565277592
| 16>   H           0.63318927040360      2.00499253919557      1.27427044523542
| 17>   H          -0.80133724186604      2.25337036461047     -0.71159459145314
| 18>   H          -2.34501230734963     -0.51718641060894      0.01070788072314
| 19>   H          -1.43181976421882     -1.79615014968111      0.89812514925193
| 20>   H          -0.93110903358180     -1.30157768226245     -1.84671494352906
| 21>   H           1.52723654355616     -1.85203084324569      0.20758897796364
| 22>   H           1.64447321110131     -0.83152673123025      1.69138152063115
| 23>   H           2.33041536914403      0.22238210384456     -0.84815919233498
| 24> **                         ****END OF INPUT****

CARTESIAN COORDINATES (ANGSTROEM)
---------------------------------
  C     -0.352740    1.545108    1.011712
  O     -1.169283    2.357020    0.198813
  P      0.014379    0.029397    0.018670
  O      0.246124    0.486413   -1.438348
  C     -1.416301   -1.141569    0.000383
  O     -1.263289   -1.927824   -1.159398
  C      1.567985   -0.798665    0.583353
  O      2.631106   -0.038725    0.055284
  H     -0.884021    1.306574    1.958006
  H      0.633189    2.004993    1.274270
  H     -0.801337    2.253370   -0.711595
  H     -2.345012   -0.517186    0.010708
  H     -1.431820   -1.796150    0.898125
  H     -0.931109   -1.301578   -1.846715
  H      1.527237   -1.852031    0.207589
  H      1.644473   -0.831527    1.691382
  H      2.330415    0.222382   -0.848159

 Total Charge           Charge          ....    0
 Multiplicity           Mult            ....    1
 Number of Electrons    NEL             ....   74
 Basis Dimension        Dim             ....  308

ORBITAL ENERGIES
----------------

  NO   OCC          E(Eh)            E(eV)
   0   2.0000     -78.111647     -2125.5260
   1   2.0000     -19.649518      -534.6906
   2   2.0000     -19.649462      -534.6891
   3   2.0000     -19.649422      -534.6880
   4   2.0000     -19.600110      -533.3461
   5   2.0000     -10.620828      -289.0074
   6   2.0000     -10.620816      -289.0071
   7   2.0000     -10.620743      -289.0051
   8   2.0000      -6.921738      -188.3501
   9   2.0000      -5.038063      -137.0927
  10   2.0000      -5.038060      -137.0926
  11   2.0000      -5.036932      -137.0619
  12   2.0000      -1.173815       -31.9411
  13   2.0000      -1.167072       -31.7576
  14   2.0000      -1.167000       -31.7557
  15   2.0000      -1.085125       -29.5277
  16   2.0000      -0.849111       -23.1055
  17   2.0000      -0.789522       -21.4840
  18   2.0000      -0.789503       -21.4835
  19   2.0000      -0.665673       -18.1139
  20   2.0000      -0.614890       -16.7320
  21   2.0000      -0.614839       -16.7306
  22   2.0000      -0.569049       -15.4846
  23   2.0000      -0.547283       -14.8923
  24   2.0000      -0.546949       -14.8832
  25   2.0000      -0.546935       -14.8829
  26   2.0000      -0.532917       -14.5014
  27   2.0000      -0.532894       -14.5008
  28   2.0000      -0.484143       -13.1742
  29   2.0000      -0.437087       -11.8937
  30   2.0000      -0.426856       -11.6154
  31   2.0000      -0.426809       -11.6141
  32   2.0000      -0.396331       -10.7847
  33   2.0000      -0.390113       -10.6155
  34   2.0000      -0.390092       -10.6150
  35   2.0000      -0.346295        -9.4232
  36   2.0000      -0.346247        -9.4219
  37   0.0000       0.028294         0.7699
  38   0.0000       0.050004         1.3607
  39   0.0000       0.068189         1.8555
  40   0.0000       0.068234         1.8567
  41   0.0000       0.096887         2.6364

MULLIKEN ATOMIC CHARGES
-----------------------
   0 C :   -0.148104
   1 O :   -0.445710
   2 P :    0.502541
   3 O :   -0.675407
   4 C :   -0.147574
   5 O :   -0.445060
   6 C :   -0.148254
   7 O :   -0.445359
   8 H :    0.150361
   9 H :    0.151226
  10 H :    0.349514
  11 H :    0.150947
  12 H :    0.150556
  13 H :    0.349411
  14 H :    0.151094
  15 H :    0.150434
  16 H :    0.349382
Sum of atomic charges:   -0.0000000

LOEWDIN ATOMIC CHARGES
----------------------
   0 C :   -0.465489
   1 O :   -0.048180
   2 P :    0.549788
   3 O :   -0.369297
   4 C :   -0.465482
   5 O :   -0.048097
   6 C :   -0.465599
   7 O :   -0.048046
   8 H :    0.129552
   9 H :    0.129635
  10 H :    0.194309
  11 H :    0.129575
  12 H :    0.129588
  13 H :    0.194291
  14 H :    0.129581
  15 H :    0.129564
  16 H :    0.194308

  Mayer bond orders larger than 0.100000
B(  0-C ,  1-O ) :   0.9974 B(  0-C ,  2-P ) :   0.9422 B(  0-C ,  8-H ) :   0.9420
B(  0-C ,  9-H ) :   0.9223 B(  1-O , 10-H ) :   0.8403 B(  2-P ,  3-O ) :   1.7114
B(  2-P ,  4-C ) :   0.9415 B(  2-P ,  6-C ) :   0.9415 B(  4-C ,  5-O ) :   0.9982
B(  4-C , 11-H ) :   0.9224 B(  4-C , 12-H ) :   0.9424 B(  5-O , 13-H ) :   0.8404
B(  6-C ,  7-O ) :   0.9977 B(  6-C , 14-H ) :   0.9224 B(  6-C , 15-H ) :   0.9422
B(  7-O , 16-H ) :   0.8405

Dispersion correction           -0.000535103
FINAL SINGLE POINT ENERGY      -761.988711172002

DIPOLE MOMENT
-------------

Method             : SCF
Type of density    : Electron Density
Multiplicity       :   1
Irrep              :   0
Energy             :  -761.9881760692792341 Eh
Relativity type    :
Basis              : AO
                                X                 Y                 Z
Electronic contribution:      0.335498439       0.665818536      -2.118187830
Nuclear contribution   :     -0.513647708      -1.018621212       3.239730402
                        -----------------------------------------
Total Dipole Moment    :     -0.178149269      -0.352802676       1.121542572
                        -----------------------------------------
Magnitude (a.u.)       :      1.189144495
Magnitude (Debye)      :      3.022565100

Rotational constants in cm-1:             0.055511             0.055481             0.035269
Rotational constants in MHz :          1664.191533          1663.266681          1057.337666

                             ****ORCA TERMINATED NORMALLY****
TOTAL RUN TIME: 0 days 0 hours 0 minutes 22 seconds 10 msec
