                         Program Version 6.0.0  -   RELEASE   -
|  1> ! RI BP86 def2-SVP D3BJ TIGHTSCF Opt
|  2> %pal
|  3> nprocs 6
|  4> end
|  5>
|  6> * xyz 0 1
|  7> C      2.442481    3.180893   -1.635095
|  8> O      1.557055    2.154285   -1.213575
|  9> C      0.806567    2.371780   -0.081978
| 10> C      0.854881    3.562342    0.658695
| 11> C      0.070391    3.724002    1.801085
| 12> C     -0.768982    2.699114    2.216160
| 13> C     -0.827244    1.509521    1.488309
| 14> C     -0.049308    1.318509    0.329523
| 15> P     -0.112127   -0.249858   -0.638304
| 16> C     -1.605901   -1.133178   -0.034227
| 17> C     -1.507365   -2.370806    0.629951
| 18> C     -2.641474   -3.051564    1.078229
| 19> C     -3.903473   -2.517868    0.857199
| 20> C     -4.036446   -1.307795    0.177285
| 21> C     -2.905041   -0.613885   -0.277682
| 22> O     -2.977195    0.569899   -0.972689
| 23> C     -4.253745    1.161120   -1.161879
| 24> C      1.315596   -1.170475    0.045468
| 25> C      1.681710   -1.090541    1.401727
| 26> C      2.766668   -1.815144    1.908047
| 27> C      3.507445   -2.643298    1.070777
| 28> C      3.169505   -2.740528   -0.275592
| 29> C      2.098802   -1.996200   -0.785597
| 30> O      1.791253   -2.157461   -2.116039
| 31> C      2.629403   -1.322876   -2.916718
| 32> H      2.958692    2.828000   -2.533183
| 33> H      1.894468    4.089863   -1.903695
| 34> H      3.203365    3.384493   -0.874550
| 35> H      1.495370    4.388785    0.370563
| 36> H      0.116426    4.651827    2.365132
| 37> H     -1.381370    2.819828    3.105784
| 38> H     -1.489850    0.728733    1.851602
| 39> H     -0.543495   -2.841583    0.803609
| 40> H     -2.532415   -4.004167    1.590257
| 41> H     -4.787048   -3.049540    1.200297
| 42> H     -5.041133   -0.935863    0.008104
| 43> H     -4.108264    2.107356   -1.691937
| 44> H     -4.893248    0.527316   -1.784669
| 45> H     -4.731430    1.388521   -0.203204
| 46> H      1.118567   -0.470327    2.093962
| 47> H      3.023851   -1.735195    2.961235
| 48> H      4.341790   -3.215709    1.466452
| 49> H      3.733231   -3.398489   -0.930631
| 50> H      3.657522   -1.700234   -2.926220
| 51> H      2.249205   -1.353042   -3.942186
| 52> H      2.612312   -0.280562   -2.579799
| 53> **                         ****END OF INPUT****
 Total Charge           Charge          ....    0
 Multiplicity           Mult            ....    1
 Number of Electrons    NEL             ....  186
Dispersion correction           -0.105558260
FINAL SINGLE POINT ENERGY     -1379.142866159521
Dispersion correction             ... done (  0.1 sec)
Dispersion correction           -0.107058911
FINAL SINGLE POINT ENERGY     -1379.153333581638
Dispersion correction             ... done (  0.1 sec)
Dispersion correction           -0.107787293
FINAL SINGLE POINT ENERGY     -1379.156158757957
Dispersion correction             ... done (  0.1 sec)
FINAL SINGLE POINT ENERGY     -1379.156416472081
FINAL SINGLE POINT ENERGY     -1379.156596722337
FINAL SINGLE POINT ENERGY     -1379.157028122418
FINAL SINGLE POINT ENERGY     -1379.157246188546
FINAL SINGLE POINT ENERGY     -1379.157279904096
FINAL SINGLE POINT ENERGY     -1379.157288712358
FINAL SINGLE POINT ENERGY     -1379.157297411894
FINAL SINGLE POINT ENERGY     -1379.157302790979
FINAL SINGLE POINT ENERGY     -1379.157308727482
FINAL SINGLE POINT ENERGY     -1379.157314338635
FINAL SINGLE POINT ENERGY     -1379.157319842262
Dispersion correction             ... done (  0.1 sec)
Dispersion correction           -0.107641253
FINAL SINGLE POINT ENERGY     -1379.157323350650
Dispersion correction             ... done (  0.1 sec)
Dispersion correction           -0.107616317
FINAL SINGLE POINT ENERGY     -1379.157324631981
Dispersion correction             ... done (  0.1 sec)
                    ***********************HURRAY********************

CARTESIAN COORDINATES (ANGSTROEM)
---------------------------------
  C      2.889772    2.981992   -0.965226
  O      1.806525    2.096648   -0.751854
  C      0.878069    2.402788    0.201082
  C      0.891350    3.583321    0.968047
  C     -0.106089    3.791807    1.938030
  C     -1.101867    2.828785    2.151557
  C     -1.102201    1.647757    1.387371
  C     -0.125770    1.416309    0.404738
  P     -0.087886   -0.051562   -0.722743
  C     -1.474457   -1.064395   -0.036033
  C     -1.301375   -2.251507    0.695633
  C     -2.404695   -3.022720    1.103217
  C     -3.701942   -2.601934    0.780169
  C     -3.906916   -1.417155    0.050198
  C     -2.797027   -0.655514   -0.362878
  O     -2.885158    0.510847   -1.065905
  C     -4.163920    1.021477   -1.393087
  C      1.368368   -0.955914   -0.013917
  C      1.992384   -0.642495    1.210021
  C      3.118346   -1.358883    1.646976
  C      3.630908   -2.409819    0.866705
  C      3.017280   -2.741291   -0.351774
  C      1.892893   -2.017750   -0.787208
  O      1.256059   -2.375831   -1.957908
  C      1.774873   -1.741732   -3.127103
  H      3.518387    2.521387   -1.749394
  H      2.546653    3.981556   -1.315520
  H      3.498597    3.114324   -0.042940
  H      1.670593    4.342649    0.816954
  H     -0.092081    4.718244    2.532679
  H     -1.875276    2.988012    2.917908
  H     -1.868450    0.879072    1.567427
  H     -0.282085   -2.574835    0.953222
  H     -2.245842   -3.948707    1.675760
  H     -4.573578   -3.195128    1.097101
  H     -4.929070   -1.098029   -0.194518
  H     -3.990626    1.965117   -1.942170
  H     -4.735495    0.321338   -2.042987
  H     -4.765321    1.236450   -0.481399
  H      1.582142    0.171571    1.826959
  H      3.592200   -1.101178    2.606607
  H      4.507584   -2.979782    1.211290
  H      3.387285   -3.569853   -0.974348
  H      2.844888   -2.004939   -3.290134
  H      1.175389   -2.105310   -3.983016
  H      1.676583   -0.635189   -3.057585

 Multiplicity           Mult            ....    1
 Number of Electrons    NEL             ....  186
 Basis Dimension        Dim             ....  459

ORBITAL ENERGIES
----------------

  NO   OCC          E(Eh)            E(eV)
   0   2.0000     -76.339079     -2077.2920
   1   2.0000     -18.814296      -511.9630
   2   2.0000     -18.812751      -511.9210
   3   2.0000     -18.789153      -511.2789
   4   2.0000      -9.972478      -271.3649
   5   2.0000      -9.971979      -271.3513
   6   2.0000      -9.971225      -271.3308
   7   2.0000      -9.970817      -271.3197
   8   2.0000      -9.963758      -271.1276
   9   2.0000      -9.955654      -270.9071
  10   2.0000      -9.918347      -269.8919
  11   2.0000      -9.916327      -269.8370
  12   2.0000      -9.915132      -269.8045
  13   2.0000      -9.914999      -269.8008
  14   2.0000      -9.914785      -269.7950
  15   2.0000      -9.914563      -269.7890
  16   2.0000      -9.914215      -269.7795
  17   2.0000      -9.913825      -269.7689
  18   2.0000      -9.913549      -269.7614
  19   2.0000      -9.913329      -269.7554
  20   2.0000      -9.912900      -269.7437
  21   2.0000      -9.912614      -269.7359
  22   2.0000      -9.911384      -269.7025
  23   2.0000      -9.908001      -269.6104
  24   2.0000      -9.906293      -269.5639
  25   2.0000      -6.305698      -171.5868
  26   2.0000      -4.527307      -123.1943
  27   2.0000      -4.527169      -123.1905
  28   2.0000      -4.523590      -123.0931
  29   2.0000      -0.973677       -26.4951
  30   2.0000      -0.972517       -26.4635
  31   2.0000      -0.949879       -25.8475
  32   2.0000      -0.768386       -20.9088
  33   2.0000      -0.761660       -20.7258
  34   2.0000      -0.760954       -20.7066
  35   2.0000      -0.694453       -18.8970
  36   2.0000      -0.681154       -18.5352
  37   2.0000      -0.674017       -18.3409
  38   2.0000      -0.667800       -18.1718
  39   2.0000      -0.662180       -18.0188
  40   2.0000      -0.660350       -17.9690
  41   2.0000      -0.623810       -16.9747
  42   2.0000      -0.619588       -16.8598
  43   2.0000      -0.608888       -16.5687
  44   2.0000      -0.577940       -15.7266
  45   2.0000      -0.542650       -14.7663
  46   2.0000      -0.541483       -14.7345
  47   2.0000      -0.525822       -14.3083
  48   2.0000      -0.523625       -14.2486
  49   2.0000      -0.519561       -14.1380
  50   2.0000      -0.498864       -13.5748
  51   2.0000      -0.480080       -13.0636
  52   2.0000      -0.473183       -12.8760
  53   2.0000      -0.459390       -12.5006
  54   2.0000      -0.432315       -11.7639
  55   2.0000      -0.430090       -11.7033
  56   2.0000      -0.425770       -11.5858
  57   2.0000      -0.422433       -11.4950
  58   2.0000      -0.420880       -11.4527
  59   2.0000      -0.419280       -11.4092
  60   2.0000      -0.417791       -11.3687
  61   2.0000      -0.408807       -11.1242
  62   2.0000      -0.404857       -11.0167
  63   2.0000      -0.389894       -10.6096
  64   2.0000      -0.387470       -10.5436
  65   2.0000      -0.380616       -10.3571
  66   2.0000      -0.373808       -10.1718
  67   2.0000      -0.369693       -10.0598
  68   2.0000      -0.368036       -10.0148
  69   2.0000      -0.357041        -9.7156
  70   2.0000      -0.356159        -9.6916
  71   2.0000      -0.339550        -9.2396
  72   2.0000      -0.334695        -9.1075
  73   2.0000      -0.330879        -9.0037
  74   2.0000      -0.324042        -8.8176
  75   2.0000      -0.317111        -8.6290
  76   2.0000      -0.313330        -8.5261
  77   2.0000      -0.311126        -8.4662
  78   2.0000      -0.305627        -8.3165
  79   2.0000      -0.297605        -8.0982
  80   2.0000      -0.291964        -7.9447
  81   2.0000      -0.283659        -7.7188
  82   2.0000      -0.279965        -7.6182
  83   2.0000      -0.279334        -7.6011
  84   2.0000      -0.275249        -7.4899
  85   2.0000      -0.242193        -6.5904
  86   2.0000      -0.226990        -6.1767
  87   2.0000      -0.225592        -6.1387
  88   2.0000      -0.220611        -6.0031
  89   2.0000      -0.215267        -5.8577
  90   2.0000      -0.200896        -5.4667
  91   2.0000      -0.194645        -5.2966
  92   2.0000      -0.176898        -4.8136
  93   0.0000      -0.048979        -1.3328
  94   0.0000      -0.046324        -1.2605
  95   0.0000      -0.037986        -1.0336
  96   0.0000      -0.033325        -0.9068
  97   0.0000      -0.024075        -0.6551

MULLIKEN ATOMIC CHARGES
-----------------------
   0 C :    0.110456
   1 O :   -0.270385
   2 C :    0.174444
   3 C :   -0.082862
   4 C :   -0.006269
   5 C :    0.011215
   6 C :   -0.030186
   7 C :   -0.154355
   8 P :    0.372430
   9 C :   -0.157389
  10 C :   -0.015604
  11 C :    0.012928
  12 C :   -0.004063
  13 C :   -0.082021
  14 C :    0.159954
  15 O :   -0.268178
  16 C :    0.110749
  17 C :   -0.151384
  18 C :   -0.015494
  19 C :    0.014520
  20 C :   -0.004473
  21 C :   -0.011338
  22 C :    0.096643
  23 O :   -0.304656
  24 C :    0.140960
  25 H :    0.055035
  26 H :    0.039803
  27 H :    0.040516
  28 H :   -0.019263
  29 H :   -0.001479
  30 H :   -0.007645
  31 H :    0.015221
  32 H :    0.016192
  33 H :   -0.005708
  34 H :   -0.001033
  35 H :   -0.018957
  36 H :    0.057194
  37 H :    0.040309
  38 H :    0.038627
  39 H :    0.014897
  40 H :   -0.002871
  41 H :    0.001061
  42 H :   -0.011085
  43 H :    0.017258
  44 H :    0.047169
  45 H :    0.039117
Sum of atomic charges:   -0.0000000

LOEWDIN ATOMIC CHARGES
----------------------
   0 C :    0.058438
   1 O :   -0.076594
   2 C :    0.032332
   3 C :   -0.086612
   4 C :   -0.027816
   5 C :   -0.056029
   6 C :   -0.030018
   7 C :   -0.190023
   8 P :    0.529824
   9 C :   -0.191462
  10 C :   -0.024358
  11 C :   -0.052686
  12 C :   -0.025678
  13 C :   -0.086352
  14 C :    0.028948
  15 O :   -0.075185
  16 C :    0.058729
  17 C :   -0.182122
  18 C :   -0.028475
  19 C :   -0.043246
  20 C :   -0.029611
  21 C :   -0.051495
  22 C :    0.024391
  23 O :   -0.120655
  24 C :    0.061598
  25 H :    0.033510
  26 H :    0.018705
  27 H :    0.020086
  28 H :    0.030078
  29 H :    0.031234
  30 H :    0.029817
  31 H :    0.034852
  32 H :    0.036240
  33 H :    0.030903
  34 H :    0.031556
  35 H :    0.030217
  36 H :    0.034707
  37 H :    0.019115
  38 H :    0.019029
  39 H :    0.035634
  40 H :    0.031352
  41 H :    0.031956
  42 H :    0.034894
  43 H :    0.009486
  44 H :    0.028318
  45 H :    0.012469

  Mayer bond orders larger than 0.100000
B(  0-C ,  1-O ) :   0.9762 B(  0-C , 25-H ) :   0.9712 B(  0-C , 26-H ) :   0.9579
B(  0-C , 27-H ) :   0.9576 B(  1-O ,  2-C ) :   1.1579 B(  2-C ,  3-C ) :   1.3287
B(  2-C ,  7-C ) :   1.3313 B(  3-C ,  4-C ) :   1.3427 B(  3-C , 28-H ) :   0.9759
B(  4-C ,  5-C ) :   1.3827 B(  4-C , 29-H ) :   0.9716 B(  5-C ,  6-C ) :   1.3520
B(  5-C , 30-H ) :   0.9765 B(  6-C ,  7-C ) :   1.4288 B(  6-C , 31-H ) :   0.9588
B(  7-C ,  8-P ) :   0.9138 B(  8-P ,  9-C ) :   0.9135 B(  8-P , 17-C ) :   0.9154
B(  9-C , 10-C ) :   1.4287 B(  9-C , 14-C ) :   1.3329 B( 10-C , 11-C ) :   1.3544
B( 10-C , 32-H ) :   0.9604 B( 11-C , 12-C ) :   1.3829 B( 11-C , 33-H ) :   0.9763
B( 12-C , 13-C ) :   1.3432 B( 12-C , 34-H ) :   0.9715 B( 13-C , 14-C ) :   1.3247
B( 13-C , 35-H ) :   0.9759 B( 14-C , 15-O ) :   1.1604 B( 15-O , 16-C ) :   0.9751
B( 16-C , 36-H ) :   0.9711 B( 16-C , 37-H ) :   0.9581 B( 16-C , 38-H ) :   0.9575
B( 17-C , 18-C ) :   1.3760 B( 17-C , 22-C ) :   1.3676 B( 18-C , 19-C ) :   1.3747
B( 18-C , 39-H ) :   0.9585 B( 19-C , 20-C ) :   1.3637 B( 19-C , 40-H ) :   0.9769
B( 20-C , 21-C ) :   1.3392 B( 20-C , 41-H ) :   0.9712 B( 21-C , 22-C ) :   1.3934
B( 21-C , 42-H ) :   0.9742 B( 22-C , 23-O ) :   1.0955 B( 23-O , 24-C ) :   0.9545
B( 24-C , 43-H ) :   0.9586 B( 24-C , 44-H ) :   0.9754 B( 24-C , 45-H ) :   0.9501

Dispersion correction           -0.107612679
FINAL SINGLE POINT ENERGY     -1379.157324213951

DIPOLE MOMENT
-------------

Method             : SCF
Type of density    : Electron Density
Multiplicity       :   1
Irrep              :   0
Energy             : -1379.0497115352354740 Eh
Relativity type    :
Basis              : AO
                                X                 Y                 Z
Electronic contribution:     -0.933289839      -3.883028315       0.547290393
Nuclear contribution   :      1.113436042       4.673837307      -0.723541424
                        -----------------------------------------
Total Dipole Moment    :      0.180146203       0.790808992      -0.176251030
                        -----------------------------------------
Magnitude (a.u.)       :      0.829997555
Magnitude (Debye)      :      2.109686125

Rotational constants in cm-1:             0.007888             0.006987             0.004845
Rotational constants in MHz :           236.486996           209.466551           145.262720

                             ****ORCA TERMINATED NORMALLY****
TOTAL RUN TIME: 0 days 0 hours 7 minutes 16 seconds 196 msec
