                         Program Version 6.0.0  -   RELEASE   -
|  1> ! RIJCOSX M062X def2-TZVP D3ZERO NormalSCF
|  2> %pal
|  3> nprocs 6
|  4> end
|  5>
|  6> * xyz 0 1
|  7>   C          -2.88388113369934     -3.26921778606187     -0.45139351750361
|  8>   C          -1.73350781935575     -3.56611103665208      0.30139059479042
|  9>   C          -0.90071033436834     -2.53051320726390      0.74662101800379
| 10>   C          -1.21035961046793     -1.19072243272253      0.43124991886799
| 11>   C          -2.36869236006209     -0.89430261513031     -0.31229037054240
| 12>   C          -3.20192976674175     -1.93503494757431     -0.75343244165757
| 13>   P          -0.16937825637712      0.12324108964503      1.15318945512889
| 14>   O          -0.29774043316843      0.25058044915101      2.65525588531615
| 15>   C          -0.54773638764533      1.67658856622062      0.26805187097001
| 16>   C          -0.95740236648266      2.75738316353555      1.07310542555474
| 17>   C          -1.26304962543909      3.99207318410747      0.47822748856803
| 18>   C          -1.15912038363241      4.14652274149211     -0.91426986435157
| 19>   C          -0.74722086791244      3.06688820436635     -1.71681527744754
| 20>   C          -0.43869651140935      1.83059774644672     -1.12993613808944
| 21>   C           1.55342982381905     -0.32627874391113      0.60539056085321
| 22>   C           2.64697454371337     -0.09786257227384      1.46732189721902
| 23>   C           3.95779194863182     -0.46091128946127      1.10245912402551
| 24>   C           4.19728347947978     -1.04740205995651     -0.15131486835790
| 25>   C           3.12803115462939     -1.27148983327002     -1.03684259477840
| 26>   C           1.83113805836723     -0.90070106680302     -0.65020820849188
| 27>   F           0.84667774928117     -1.11132985740595     -1.54509980104390
| 28>   F           3.35584362556798     -1.82159423770330     -2.23424287802305
| 29>   F           5.43717230480171     -1.38858937787532     -0.50423383724205
| 30>   F           4.97807611559096     -0.23945394660491      1.93661347147307
| 31>   F           2.49017705861214      0.47849471679141      2.65837993427353
| 32>   H          -3.53692257998697     -4.08331075128488     -0.80126691078887
| 33>   H          -1.48677512018826     -4.61102776795634      0.54377192023178
| 34>   H          -0.00490955604574     -2.76049445694481      1.34502366448769
| 35>   H          -2.61796498967012      0.15084278445913     -0.54964781470147
| 36>   H          -4.10539823591083     -1.70137950281866     -1.33707487336108
| 37>   H          -1.02467191378681      2.60491934692502      2.16161706446078
| 38>   H          -1.58262938677508      4.83819741125360      1.10559394024820
| 39>   H          -1.39875991404144      5.11507570028771     -1.37950354209020
| 40>   H          -0.66528572917730      3.19021374419642     -2.80757920867123
| 41>   H          -0.11985058015001      0.98610864079681     -1.75811008733066
| 42> **                         ****END OF INPUT****

CARTESIAN COORDINATES (ANGSTROEM)
---------------------------------
  C     -2.883881   -3.269218   -0.451394
  C     -1.733508   -3.566111    0.301391
  C     -0.900710   -2.530513    0.746621
  C     -1.210360   -1.190722    0.431250
  C     -2.368692   -0.894303   -0.312290
  C     -3.201930   -1.935035   -0.753432
  P     -0.169378    0.123241    1.153189
  O     -0.297740    0.250580    2.655256
  C     -0.547736    1.676589    0.268052
  C     -0.957402    2.757383    1.073105
  C     -1.263050    3.992073    0.478227
  C     -1.159120    4.146523   -0.914270
  C     -0.747221    3.066888   -1.716815
  C     -0.438697    1.830598   -1.129936
  C      1.553430   -0.326279    0.605391
  C      2.646975   -0.097863    1.467322
  C      3.957792   -0.460911    1.102459
  C      4.197283   -1.047402   -0.151315
  C      3.128031   -1.271490   -1.036843
  C      1.831138   -0.900701   -0.650208
  F      0.846678   -1.111330   -1.545100
  F      3.355844   -1.821594   -2.234243
  F      5.437172   -1.388589   -0.504234
  F      4.978076   -0.239454    1.936613
  F      2.490177    0.478495    2.658380
  H     -3.536923   -4.083311   -0.801267
  H     -1.486775   -4.611028    0.543772
  H     -0.004910   -2.760494    1.345024
  H     -2.617965    0.150843   -0.549648
  H     -4.105398   -1.701380   -1.337075
  H     -1.024672    2.604919    2.161617
  H     -1.582629    4.838197    1.105594
  H     -1.398760    5.115076   -1.379504
  H     -0.665286    3.190214   -2.807579
  H     -0.119851    0.986109   -1.758110

 Total Charge           Charge          ....    0
 Multiplicity           Mult            ....    1
 Number of Electrons    NEL             ....  186
 Basis Dimension        Dim             ....  841

ORBITAL ENERGIES
----------------

  NO   OCC          E(Eh)            E(eV)
   0   2.0000     -78.121213     -2125.7863
   1   2.0000     -25.303107      -688.5325
   2   2.0000     -25.299198      -688.4262
   3   2.0000     -25.298290      -688.4015
   4   2.0000     -25.294657      -688.3026
   5   2.0000     -25.284895      -688.0370
   6   2.0000     -19.580599      -532.8152
   7   2.0000     -10.686099      -290.7835
   8   2.0000     -10.683444      -290.7113
   9   2.0000     -10.681227      -290.6510
  10   2.0000     -10.677502      -290.5496
  11   2.0000     -10.675253      -290.4884
  12   2.0000     -10.600302      -288.4489
  13   2.0000     -10.573488      -287.7192
  14   2.0000     -10.572040      -287.6798
  15   2.0000     -10.571779      -287.6727
  16   2.0000     -10.571043      -287.6527
  17   2.0000     -10.570539      -287.6390
  18   2.0000     -10.569931      -287.6224
  19   2.0000     -10.568140      -287.5737
  20   2.0000     -10.568037      -287.5709
  21   2.0000     -10.567886      -287.5668
  22   2.0000     -10.565873      -287.5120
  23   2.0000     -10.565660      -287.5062
  24   2.0000     -10.565580      -287.5040
  25   2.0000      -6.926410      -188.4772
  26   2.0000      -5.043907      -137.2517
  27   2.0000      -5.043423      -137.2385
  28   2.0000      -5.041655      -137.1904
  29   2.0000      -1.425819       -38.7985
  30   2.0000      -1.417520       -38.5727
  31   2.0000      -1.410939       -38.3936
  32   2.0000      -1.404063       -38.2065
  33   2.0000      -1.397325       -38.0232
  34   2.0000      -1.078303       -29.3421
  35   2.0000      -1.015440       -27.6315
  36   2.0000      -0.976045       -26.5595
  37   2.0000      -0.972155       -26.4537
  38   2.0000      -0.904473       -24.6120
  39   2.0000      -0.892892       -24.2968
  40   2.0000      -0.871495       -23.7146
  41   2.0000      -0.859199       -23.3800
  42   2.0000      -0.858843       -23.3703
  43   2.0000      -0.854836       -23.2613
  44   2.0000      -0.786002       -21.3882
  45   2.0000      -0.772452       -21.0195
  46   2.0000      -0.736991       -20.0545
  47   2.0000      -0.706673       -19.2296
  48   2.0000      -0.706145       -19.2152
  49   2.0000      -0.701289       -19.0830
  50   2.0000      -0.696730       -18.9590
  51   2.0000      -0.694285       -18.8925
  52   2.0000      -0.683860       -18.6088
  53   2.0000      -0.649808       -17.6822
  54   2.0000      -0.644831       -17.5467
  55   2.0000      -0.641559       -17.4577
  56   2.0000      -0.637856       -17.3569
  57   2.0000      -0.620904       -16.8956
  58   2.0000      -0.615442       -16.7470
  59   2.0000      -0.609057       -16.5733
  60   2.0000      -0.600669       -16.3450
  61   2.0000      -0.594117       -16.1668
  62   2.0000      -0.586883       -15.9699
  63   2.0000      -0.580375       -15.7928
  64   2.0000      -0.564762       -15.3680
  65   2.0000      -0.559948       -15.2370
  66   2.0000      -0.548156       -14.9161
  67   2.0000      -0.543582       -14.7916
  68   2.0000      -0.536166       -14.5898
  69   2.0000      -0.530734       -14.4420
  70   2.0000      -0.522473       -14.2172
  71   2.0000      -0.516777       -14.0622
  72   2.0000      -0.504554       -13.7296
  73   2.0000      -0.503275       -13.6948
  74   2.0000      -0.501090       -13.6353
  75   2.0000      -0.485781       -13.2188
  76   2.0000      -0.479418       -13.0456
  77   2.0000      -0.467051       -12.7091
  78   2.0000      -0.456271       -12.4158
  79   2.0000      -0.448914       -12.2156
  80   2.0000      -0.445687       -12.1278
  81   2.0000      -0.427174       -11.6240
  82   2.0000      -0.422758       -11.5038
  83   2.0000      -0.417745       -11.3674
  84   2.0000      -0.414914       -11.2904
  85   2.0000      -0.355671        -9.6783
  86   2.0000      -0.353704        -9.6248
  87   2.0000      -0.342147        -9.3103
  88   2.0000      -0.328764        -8.9461
  89   2.0000      -0.328104        -8.9282
  90   2.0000      -0.326693        -8.8898
  91   2.0000      -0.323192        -8.7945
  92   2.0000      -0.322934        -8.7875
  93   0.0000      -0.035771        -0.9734
  94   0.0000      -0.019112        -0.5201
  95   0.0000      -0.014900        -0.4055
  96   0.0000      -0.005650        -0.1537
  97   0.0000      -0.003133        -0.0853

MULLIKEN ATOMIC CHARGES
-----------------------
   0 C :   -0.126708
   1 C :   -0.144747
   2 C :   -0.177030
   3 C :   -0.059736
   4 C :   -0.123984
   5 C :   -0.161100
   6 P :    0.672817
   7 O :   -0.549257
   8 C :   -0.124150
   9 C :   -0.131341
  10 C :   -0.136960
  11 C :   -0.134063
  12 C :   -0.140959
  13 C :   -0.212661
  14 C :   -0.215266
  15 C :    0.234011
  16 C :    0.142491
  17 C :    0.174195
  18 C :    0.152332
  19 C :    0.183204
  20 F :   -0.181147
  21 F :   -0.164646
  22 F :   -0.158161
  23 F :   -0.161970
  24 F :   -0.142931
  25 H :    0.152012
  26 H :    0.152554
  27 H :    0.175012
  28 H :    0.189829
  29 H :    0.150887
  30 H :    0.199067
  31 H :    0.154371
  32 H :    0.153387
  33 H :    0.153177
  34 H :    0.207475
Sum of atomic charges:   -0.0000000

LOEWDIN ATOMIC CHARGES
----------------------
   0 C :   -0.125426
   1 C :   -0.132886
   2 C :   -0.119648
   3 C :   -0.232790
   4 C :   -0.121847
   5 C :   -0.133538
   6 P :    0.687432
   7 O :   -0.280383
   8 C :   -0.240477
   9 C :   -0.111761
  10 C :   -0.132577
  11 C :   -0.126339
  12 C :   -0.137852
  13 C :   -0.132868
  14 C :   -0.181795
  15 C :   -0.229152
  16 C :   -0.221306
  17 C :   -0.210775
  18 C :   -0.224551
  19 C :   -0.236672
  20 F :    0.211232
  21 F :    0.215202
  22 F :    0.225896
  23 F :    0.218038
  24 F :    0.236066
  25 H :    0.150222
  26 H :    0.150911
  27 H :    0.156809
  28 H :    0.158025
  29 H :    0.150511
  30 H :    0.164066
  31 H :    0.151294
  32 H :    0.150300
  33 H :    0.150615
  34 H :    0.156024

  Mayer bond orders larger than 0.100000
B(  0-C ,  1-C ) :   1.4242 B(  0-C ,  5-C ) :   1.4444 B(  0-C , 25-H ) :   0.9437
B(  1-C ,  2-C ) :   1.4707 B(  1-C , 26-H ) :   0.9425 B(  2-C ,  3-C ) :   1.3722
B(  2-C , 27-H ) :   0.9346 B(  3-C ,  4-C ) :   1.3727 B(  3-C ,  6-P ) :   0.9596
B(  4-C ,  5-C ) :   1.4565 B(  4-C , 28-H ) :   0.9169 B(  5-C , 29-H ) :   0.9422
B(  6-P ,  7-O ) :   2.0161 B(  6-P ,  8-C ) :   0.9087 B(  6-P , 14-C ) :   0.8331
B(  8-C ,  9-C ) :   1.4208 B(  8-C , 13-C ) :   1.3437 B(  9-C , 10-C ) :   1.4252
B(  9-C , 30-H ) :   0.9051 B( 10-C , 11-C ) :   1.4401 B( 10-C , 31-H ) :   0.9478
B( 11-C , 12-C ) :   1.4321 B( 11-C , 32-H ) :   0.9456 B( 12-C , 13-C ) :   1.4982
B( 12-C , 33-H ) :   0.9440 B( 13-C , 34-H ) :   0.8958 B( 14-C , 15-C ) :   1.2947
B( 14-C , 19-C ) :   1.3100 B( 15-C , 16-C ) :   1.4183 B( 15-C , 24-F ) :   1.0812
B( 16-C , 17-C ) :   1.3919 B( 16-C , 23-F ) :   1.0487 B( 17-C , 18-C ) :   1.3913
B( 17-C , 22-F ) :   1.0441 B( 18-C , 19-C ) :   1.4288 B( 18-C , 21-F ) :   1.0667
B( 19-C , 20-F ) :   0.9763

Dispersion correction           -0.002478533
FINAL SINGLE POINT ENERGY     -1607.737404268398

DIPOLE MOMENT
-------------

Method             : SCF
Type of density    : Electron Density
Multiplicity       :   1
Irrep              :   0
Energy             : -1607.7349257357807346 Eh
Relativity type    :
Basis              : AO
                                X                 Y                 Z
Electronic contribution:     33.494141436      -7.743639905       3.754817325
Nuclear contribution   :    -34.347844092       7.870736506      -5.307974654
                        -----------------------------------------
Total Dipole Moment    :     -0.853702656       0.127096600      -1.553157328
                        -----------------------------------------
Magnitude (a.u.)       :      1.776867878
Magnitude (Debye)      :      4.516439219

Rotational constants in cm-1:             0.008432             0.005657             0.004576
Rotational constants in MHz :           252.780623           169.597513           137.193786

                             ****ORCA TERMINATED NORMALLY****
TOTAL RUN TIME: 0 days 0 hours 3 minutes 0 seconds 13 msec
