                         Program Version 6.0.0  -   RELEASE   -
|  1> ! RIJONX B3LYP def2-SVP D3BJ TIGHTSCF Opt
|  2> %pal
|  3> nprocs 6
|  4> end
|  5>
|  6> * xyz 0 1
|  7> C     -3.937703   -2.393980   -0.714327
|  8> C     -2.570580   -3.034328   -0.915380
|  9> C     -1.519776   -2.438077    0.021326
| 10> C     -1.422891   -0.906120   -0.118741
| 11> C     -2.818338   -0.286836    0.102065
| 12> C     -3.862057   -0.878223   -0.843498
| 13> P     -0.203779   -0.184225    1.081163
| 14> C      0.108517    1.547290    0.503101
| 15> C     -0.699972    2.544966    1.365435
| 16> C     -0.891844    3.913769    0.702771
| 17> C      0.257873    4.260433   -0.232135
| 18> C      0.403070    3.235688   -1.358230
| 19> C     -0.107458    1.839175   -0.983699
| 20> C      1.381265   -1.084945    0.760674
| 21> C      2.455499   -0.687494    1.791561
| 22> C      3.729427   -1.515882    1.620478
| 23> C      4.269019   -1.437379    0.196194
| 24> C      3.204555   -1.814977   -0.829200
| 25> C      1.939961   -0.971943   -0.659942
| 26> H     -4.645570   -2.793517   -1.449129
| 27> H     -4.323109   -2.658203    0.278099
| 28> H     -2.642112   -4.114835   -0.746713
| 29> H     -2.250774   -2.894822   -1.955493
| 30> H     -1.764134   -2.713367    1.056026
| 31> H     -0.559743   -2.911534   -0.211816
| 32> H     -1.097786   -0.687124   -1.141471
| 33> H     -2.798612    0.797873   -0.045538
| 34> H     -3.146045   -0.449895    1.138037
| 35> H     -3.612995   -0.608422   -1.877158
| 36> H     -4.843688   -0.441719   -0.627054
| 37> H      1.165921    1.745080    0.719515
| 38> H     -0.175860    2.682570    2.321235
| 39> H     -1.691907    2.155473    1.626574
| 40> H     -0.998252    4.683598    1.475464
| 41> H     -1.829962    3.912088    0.133310
| 42> H      0.113740    5.259183   -0.659451
| 43> H      1.190266    4.300791    0.345102
| 44> H     -0.140321    3.580855   -2.246252
| 45> H      1.459233    3.179062   -1.648668
| 46> H      0.379607    1.106291   -1.632896
| 47> H     -1.175038    1.790291   -1.228632
| 48> H      1.159249   -2.142885    0.948870
| 49> H      2.710978    0.375202    1.695652
| 50> H      2.079823   -0.827953    2.813167
| 51> H      4.493334   -1.165575    2.323810
| 52> H      3.519251   -2.562422    1.873542
| 53> H      5.134418   -2.101387    0.091900
| 54> H      4.622172   -0.418184   -0.003645
| 55> H      3.604326   -1.679085   -1.840484
| 56> H      2.953341   -2.877602   -0.724498
| 57> H      2.194913    0.068791   -0.890295
| 58> H      1.200550   -1.295526   -1.400731
| 59> **                         ****END OF INPUT****
 Total Charge           Charge          ....    0
 Multiplicity           Mult            ....    1
 Number of Electrons    NEL             ....  156
Dispersion correction           -0.111516280
FINAL SINGLE POINT ENERGY     -1046.101911244907
Dispersion correction             ... done (  0.1 sec)
Dispersion correction           -0.111715126
FINAL SINGLE POINT ENERGY     -1046.106536699184
Dispersion correction             ... done (  0.1 sec)
Dispersion correction           -0.111071319
FINAL SINGLE POINT ENERGY     -1046.107162307439
Dispersion correction             ... done (  0.1 sec)
FINAL SINGLE POINT ENERGY     -1046.106612723510
FINAL SINGLE POINT ENERGY     -1046.107635265417
FINAL SINGLE POINT ENERGY     -1046.107631920605
Dispersion correction             ... done (  0.1 sec)
Dispersion correction           -0.111426130
FINAL SINGLE POINT ENERGY     -1046.107659533776
Dispersion correction             ... done (  0.1 sec)
Dispersion correction           -0.111352598
FINAL SINGLE POINT ENERGY     -1046.107664235356
Dispersion correction             ... done (  0.1 sec)
                    ***********************HURRAY********************

CARTESIAN COORDINATES (ANGSTROEM)
---------------------------------
  C     -3.926808   -2.414289   -0.741578
  C     -2.543617   -3.040548   -0.940950
  C     -1.505292   -2.447158    0.019896
  C     -1.430088   -0.914095   -0.091104
  C     -2.828364   -0.297319    0.104289
  C     -3.860732   -0.889092   -0.861993
  P     -0.245251   -0.198205    1.183061
  C      0.067061    1.550606    0.539151
  C     -0.733659    2.573733    1.387955
  C     -0.891190    3.935735    0.680577
  C      0.325164    4.245499   -0.195614
  C      0.462303    3.209877   -1.333795
  C     -0.138920    1.838986   -0.955827
  C      1.370620   -1.074266    0.776711
  C      2.466309   -0.641358    1.768426
  C      3.747904   -1.465455    1.592657
  C      4.257806   -1.415856    0.148536
  C      3.168617   -1.843155   -0.840785
  C      1.893742   -1.006640   -0.665280
  H     -4.646206   -2.829534   -1.467446
  H     -4.304264   -2.681531    0.262854
  H     -2.592784   -4.135131   -0.812036
  H     -2.212925   -2.862569   -1.981031
  H     -1.765220   -2.721674    1.059297
  H     -0.520798   -2.896946   -0.184056
  H     -1.083119   -0.665649   -1.108784
  H     -2.786128    0.796458   -0.016978
  H     -3.152549   -0.480029    1.144989
  H     -3.586454   -0.616950   -1.898173
  H     -4.852194   -0.443234   -0.674084
  H      1.139081    1.707425    0.751793
  H     -0.222791    2.703091    2.356428
  H     -1.729938    2.168848    1.631658
  H     -1.052129    4.731278    1.426294
  H     -1.794856    3.927347    0.045775
  H      0.261720    5.264534   -0.610498
  H      1.229470    4.230807    0.438102
  H     -0.034396    3.581637   -2.246121
  H      1.527726    3.086664   -1.593207
  H      0.303217    1.055329   -1.585299
  H     -1.218273    1.832506   -1.178810
  H      1.143316   -2.132593    1.002811
  H      2.703963    0.426923    1.609571
  H      2.091169   -0.725465    2.801620
  H      4.526485   -1.109055    2.288287
  H      3.539572   -2.515900    1.867859
  H      5.153172   -2.049948    0.034304
  H      4.574365   -0.382799   -0.088320
  H      3.536733   -1.761747   -1.877745
  H      2.926256   -2.909629   -0.677437
  H      2.121686    0.042921   -0.919915
  H      1.121488   -1.342383   -1.376038

 Multiplicity           Mult            ....    1
 Number of Electrons    NEL             ....  156
 Basis Dimension        Dim             ....  435

ORBITAL ENERGIES
----------------

  NO   OCC          E(Eh)            E(eV)
   0   2.0000     -77.024871     -2095.9533
   1   2.0000     -10.179335      -276.9938
   2   2.0000     -10.179278      -276.9922
   3   2.0000     -10.178491      -276.9708
   4   2.0000     -10.177779      -276.9514
   5   2.0000     -10.177481      -276.9433
   6   2.0000     -10.176861      -276.9265
   7   2.0000     -10.176703      -276.9222
   8   2.0000     -10.176251      -276.9099
   9   2.0000     -10.176126      -276.9065
  10   2.0000     -10.176020      -276.9036
  11   2.0000     -10.175995      -276.9029
  12   2.0000     -10.175881      -276.8998
  13   2.0000     -10.175774      -276.8969
  14   2.0000     -10.175463      -276.8884
  15   2.0000     -10.174811      -276.8707
  16   2.0000     -10.174670      -276.8668
  17   2.0000     -10.173979      -276.8480
  18   2.0000     -10.173898      -276.8458
  19   2.0000      -6.521320      -177.4541
  20   2.0000      -4.686721      -127.5322
  21   2.0000      -4.686615      -127.5293
  22   2.0000      -4.683718      -127.4504
  23   2.0000      -0.827080       -22.5060
  24   2.0000      -0.818105       -22.2618
  25   2.0000      -0.815934       -22.2027
  26   2.0000      -0.749827       -20.4038
  27   2.0000      -0.730173       -19.8690
  28   2.0000      -0.729550       -19.8521
  29   2.0000      -0.724263       -19.7082
  30   2.0000      -0.723794       -19.6954
  31   2.0000      -0.719897       -19.5894
  32   2.0000      -0.630825       -17.1656
  33   2.0000      -0.605549       -16.4778
  34   2.0000      -0.599494       -16.3131
  35   2.0000      -0.597095       -16.2478
  36   2.0000      -0.590886       -16.0788
  37   2.0000      -0.587584       -15.9890
  38   2.0000      -0.548160       -14.9162
  39   2.0000      -0.543172       -14.7805
  40   2.0000      -0.530229       -14.4283
  41   2.0000      -0.509281       -13.8582
  42   2.0000      -0.480685       -13.0801
  43   2.0000      -0.470902       -12.8139
  44   2.0000      -0.465835       -12.6760
  45   2.0000      -0.454393       -12.3647
  46   2.0000      -0.435597       -11.8532
  47   2.0000      -0.434760       -11.8304
  48   2.0000      -0.432291       -11.7632
  49   2.0000      -0.430387       -11.7114
  50   2.0000      -0.429465       -11.6863
  51   2.0000      -0.423838       -11.5332
  52   2.0000      -0.409642       -11.1469
  53   2.0000      -0.393707       -10.7133
  54   2.0000      -0.382825       -10.4172
  55   2.0000      -0.379110       -10.3161
  56   2.0000      -0.375757       -10.2249
  57   2.0000      -0.374504       -10.1908
  58   2.0000      -0.370302       -10.0764
  59   2.0000      -0.367681       -10.0051
  60   2.0000      -0.359160        -9.7732
  61   2.0000      -0.352264        -9.5856
  62   2.0000      -0.350661        -9.5420
  63   2.0000      -0.345121        -9.3912
  64   2.0000      -0.340988        -9.2787
  65   2.0000      -0.337385        -9.1807
  66   2.0000      -0.335836        -9.1386
  67   2.0000      -0.333425        -9.0730
  68   2.0000      -0.320468        -8.7204
  69   2.0000      -0.314688        -8.5631
  70   2.0000      -0.307923        -8.3790
  71   2.0000      -0.302705        -8.2370
  72   2.0000      -0.301491        -8.2040
  73   2.0000      -0.297081        -8.0840
  74   2.0000      -0.294958        -8.0262
  75   2.0000      -0.268125        -7.2960
  76   2.0000      -0.267792        -7.2870
  77   2.0000      -0.207716        -5.6522
  78   0.0000       0.040385         1.0989
  79   0.0000       0.046366         1.2617
  80   0.0000       0.049862         1.3568
  81   0.0000       0.065824         1.7912
  82   0.0000       0.071231         1.9383

MULLIKEN ATOMIC CHARGES
-----------------------
   0 C :    0.021583
   1 C :    0.038068
   2 C :    0.058226
   3 C :   -0.243213
   4 C :    0.056926
   5 C :    0.043885
   6 P :    0.249148
   7 C :   -0.257950
   8 C :    0.078961
   9 C :    0.029338
  10 C :    0.019829
  11 C :    0.036412
  12 C :    0.062438
  13 C :   -0.253593
  14 C :    0.069268
  15 C :    0.039522
  16 C :    0.017281
  17 C :    0.040938
  18 C :    0.056268
  19 H :   -0.005351
  20 H :   -0.012003
  21 H :   -0.005793
  22 H :   -0.015939
  23 H :   -0.004899
  24 H :    0.003850
  25 H :    0.008039
  26 H :    0.002327
  27 H :   -0.004642
  28 H :   -0.016066
  29 H :   -0.005690
  30 H :    0.013795
  31 H :   -0.007251
  32 H :   -0.001524
  33 H :   -0.004731
  34 H :   -0.013598
  35 H :   -0.005103
  36 H :   -0.011873
  37 H :   -0.009166
  38 H :   -0.009477
  39 H :   -0.001041
  40 H :   -0.007961
  41 H :    0.014847
  42 H :   -0.009290
  43 H :    0.001424
  44 H :   -0.005680
  45 H :   -0.013326
  46 H :   -0.004584
  47 H :   -0.013887
  48 H :   -0.006794
  49 H :   -0.014923
  50 H :    0.002338
  51 H :    0.000636
Sum of atomic charges:   -0.0000000

LOEWDIN ATOMIC CHARGES
----------------------
   0 C :   -0.034178
   1 C :   -0.031890
   2 C :   -0.038037
   3 C :   -0.165232
   4 C :   -0.039639
   5 C :   -0.032189
   6 P :    0.481208
   7 C :   -0.171038
   8 C :   -0.038505
   9 C :   -0.035804
  10 C :   -0.036084
  11 C :   -0.032605
  12 C :   -0.040677
  13 C :   -0.172038
  14 C :   -0.038095
  15 C :   -0.032325
  16 C :   -0.034588
  17 C :   -0.031835
  18 C :   -0.039377
  19 H :    0.018983
  20 H :    0.017355
  21 H :    0.019526
  22 H :    0.015962
  23 H :    0.016963
  24 H :    0.017125
  25 H :    0.008558
  26 H :    0.015215
  27 H :    0.016799
  28 H :    0.015712
  29 H :    0.019643
  30 H :    0.015222
  31 H :    0.019433
  32 H :    0.014634
  33 H :    0.020784
  34 H :    0.015735
  35 H :    0.019964
  36 H :    0.016301
  37 H :    0.018659
  38 H :    0.017441
  39 H :    0.017145
  40 H :    0.016036
  41 H :    0.016579
  42 H :    0.012630
  43 H :    0.019431
  44 H :    0.019615
  45 H :    0.016702
  46 H :    0.019406
  47 H :    0.016014
  48 H :    0.018774
  49 H :    0.015934
  50 H :    0.017713
  51 H :    0.016932

  Mayer bond orders larger than 0.100000
B(  0-C ,  1-C ) :   1.0974 B(  0-C ,  5-C ) :   1.0953 B(  0-C , 19-H ) :   0.9367
B(  0-C , 20-H ) :   0.9313 B(  1-C ,  2-C ) :   1.0984 B(  1-C , 21-H ) :   0.9342
B(  1-C , 22-H ) :   0.9286 B(  2-C ,  3-C ) :   1.0431 B(  2-C , 23-H ) :   0.9267
B(  2-C , 24-H ) :   0.9276 B(  3-C ,  4-C ) :   1.0458 B(  3-C ,  6-P ) :   0.9626
B(  3-C , 25-H ) :   0.8854 B(  4-C ,  5-C ) :   1.0959 B(  4-C , 26-H ) :   0.9252
B(  4-C , 27-H ) :   0.9251 B(  5-C , 28-H ) :   0.9286 B(  5-C , 29-H ) :   0.9342
B(  6-P ,  7-C ) :   0.9388 B(  6-P , 13-C ) :   0.9495 B(  7-C ,  8-C ) :   1.0331
B(  7-C , 12-C ) :   1.0787 B(  7-C , 30-H ) :   0.8945 B(  8-C ,  9-C ) :   1.0908
B(  8-C , 31-H ) :   0.9323 B(  8-C , 32-H ) :   0.9324 B(  9-C , 10-C ) :   1.1401
B(  9-C , 33-H ) :   0.9360 B(  9-C , 34-H ) :   0.9230 B( 10-C , 11-C ) :   1.0880
B( 10-C , 35-H ) :   0.9382 B( 10-C , 36-H ) :   0.9285 B( 11-C , 12-C ) :   1.0915
B( 11-C , 37-H ) :   0.9319 B( 11-C , 38-H ) :   0.9347 B( 12-C , 39-H ) :   0.9284
B( 12-C , 40-H ) :   0.9141 B( 13-C , 14-C ) :   1.0466 B( 13-C , 18-C ) :   1.0214
B( 13-C , 41-H ) :   0.9030 B( 14-C , 15-C ) :   1.0964 B( 14-C , 42-H ) :   0.9256
B( 14-C , 43-H ) :   0.9269 B( 15-C , 16-C ) :   1.0949 B( 15-C , 44-H ) :   0.9346
B( 15-C , 45-H ) :   0.9307 B( 16-C , 17-C ) :   1.0947 B( 16-C , 46-H ) :   0.9359
B( 16-C , 47-H ) :   0.9321 B( 17-C , 18-C ) :   1.0892 B( 17-C , 48-H ) :   0.9343
B( 17-C , 49-H ) :   0.9297 B( 18-C , 50-H ) :   0.9241 B( 18-C , 51-H ) :   0.9298

Dispersion correction           -0.111377037
FINAL SINGLE POINT ENERGY     -1046.107665684008

DIPOLE MOMENT
-------------

Method             : SCF
Type of density    : Electron Density
Multiplicity       :   1
Irrep              :   0
Energy             : -1045.9962886473356320 Eh
Relativity type    :
Basis              : AO
                                X                 Y                 Z
Electronic contribution:     -1.303822056      -1.204727455       6.354703206
Nuclear contribution   :      1.447118652       1.200591006      -6.796499011
                        -----------------------------------------
Total Dipole Moment    :      0.143296596      -0.004136449      -0.441795805
                        -----------------------------------------
Magnitude (a.u.)       :      0.464472344
Magnitude (Debye)      :      1.180594875

Rotational constants in cm-1:             0.010966             0.009423             0.005972
Rotational constants in MHz :           328.744894           282.490682           179.021757

                             ****ORCA TERMINATED NORMALLY****
TOTAL RUN TIME: 0 days 0 hours 12 minutes 21 seconds 48 msec
