                         Program Version 6.0.0  -   RELEASE   -
|  1> ! RIJONX B3LYP def2-SVP D3BJ TIGHTSCF Opt
|  2> %pal
|  3> nprocs 6
|  4> end
|  5>
|  6> * xyz 0 1
|  7> C      2.881618    0.060742    1.003614
|  8> C      1.966676    0.210064    2.041579
|  9> C      0.596015    0.206913    1.771323
| 10> C      0.120404    0.054480    0.459860
| 11> C      1.054475   -0.094707   -0.573616
| 12> C      2.425998   -0.091546   -0.303120
| 13> P     -1.677755    0.061692    0.196624
| 14> C     -1.882751    1.310487   -1.140338
| 15> O     -1.564952    2.648533   -0.779291
| 16> C     -1.944404   -1.466064   -0.795261
| 17> O     -1.683439   -2.687681   -0.116092
| 18> H      3.948349    0.063039    1.212697
| 19> H      2.317573    0.329297    3.063636
| 20> H     -0.097447    0.325641    2.602709
| 21> H      0.739826   -0.216147   -1.606948
| 22> H      3.139428   -0.208342   -1.115386
| 23> H     -2.926992    1.307450   -1.468541
| 24> H     -1.276860    1.057140   -2.015534
| 25> H     -0.850646    2.575285   -0.122326
| 26> H     -2.989283   -1.497777   -1.119898
| 27> H     -1.332782   -1.461282   -1.702539
| 28> H     -0.963051   -2.487219    0.506850
| 29> **                         ****END OF INPUT****
 Total Charge           Charge          ....    0
 Multiplicity           Mult            ....    1
 Number of Electrons    NEL             ....   90
Dispersion correction           -0.044739503
FINAL SINGLE POINT ENERGY      -802.514134674117
Dispersion correction             ... done (  0.1 sec)
Dispersion correction           -0.044990461
FINAL SINGLE POINT ENERGY      -802.518880918901
Dispersion correction             ... done (  0.1 sec)
Dispersion correction           -0.045216295
FINAL SINGLE POINT ENERGY      -802.521289546538
Dispersion correction             ... done (  0.1 sec)
FINAL SINGLE POINT ENERGY      -802.522403259059
FINAL SINGLE POINT ENERGY      -802.523124169026
FINAL SINGLE POINT ENERGY      -802.523326173702
FINAL SINGLE POINT ENERGY      -802.523408555668
Dispersion correction             ... done (  0.1 sec)
Dispersion correction           -0.045564311
FINAL SINGLE POINT ENERGY      -802.523424782410
Dispersion correction             ... done (  0.1 sec)
Dispersion correction           -0.045552020
FINAL SINGLE POINT ENERGY      -802.523428540076
Dispersion correction             ... done (  0.1 sec)
                    ***********************HURRAY********************

CARTESIAN COORDINATES (ANGSTROEM)
---------------------------------
  C      2.796768    0.060403    1.021209
  C      1.891236    0.191981    2.077304
  C      0.516124    0.198091    1.823515
  C      0.022907    0.071609    0.513947
  C      0.948308   -0.061506   -0.539155
  C      2.322902   -0.066237   -0.289005
  P     -1.820658    0.084402    0.265363
  C     -1.874901    1.352049   -1.139792
  O     -1.306300    2.577206   -0.753146
  C     -1.939646   -1.506223   -0.755577
  O     -1.429667   -2.610273   -0.052464
  H      3.871982    0.056263    1.217220
  H      2.256035    0.290937    3.102852
  H     -0.192925    0.302286    2.649234
  H      0.596687   -0.163418   -1.569721
  H      3.027038   -0.169653   -1.118749
  H     -2.932851    1.542429   -1.382851
  H     -1.402345    0.933923   -2.054408
  H     -0.390753    2.407678   -0.487808
  H     -3.005871   -1.704846   -0.951489
  H     -1.448323   -1.366778   -1.742413
  H     -0.505745   -2.420326    0.165936

 Multiplicity           Mult            ....    1
 Number of Electrons    NEL             ....   90
 Basis Dimension        Dim             ....  213

ORBITAL ENERGIES
----------------

  NO   OCC          E(Eh)            E(eV)
   0   2.0000     -77.041584     -2096.4081
   1   2.0000     -19.131659      -520.5989
   2   2.0000     -19.131574      -520.5966
   3   2.0000     -10.234839      -278.5041
   4   2.0000     -10.234783      -278.5026
   5   2.0000     -10.210250      -277.8350
   6   2.0000     -10.207806      -277.7685
   7   2.0000     -10.207451      -277.7589
   8   2.0000     -10.205889      -277.7164
   9   2.0000     -10.205431      -277.7039
  10   2.0000     -10.205301      -277.7004
  11   2.0000      -6.540911      -177.9872
  12   2.0000      -4.706269      -128.0641
  13   2.0000      -4.705917      -128.0545
  14   2.0000      -4.702949      -127.9737
  15   2.0000      -1.010465       -27.4962
  16   2.0000      -1.009248       -27.4630
  17   2.0000      -0.862260       -23.4633
  18   2.0000      -0.763091       -20.7648
  19   2.0000      -0.753125       -20.4936
  20   2.0000      -0.710039       -19.3211
  21   2.0000      -0.659859       -17.9557
  22   2.0000      -0.620894       -16.8954
  23   2.0000      -0.613371       -16.6907
  24   2.0000      -0.567272       -15.4363
  25   2.0000      -0.520073       -14.1519
  26   2.0000      -0.503535       -13.7019
  27   2.0000      -0.494315       -13.4510
  28   2.0000      -0.467316       -12.7163
  29   2.0000      -0.457554       -12.4507
  30   2.0000      -0.447631       -12.1807
  31   2.0000      -0.436386       -11.8747
  32   2.0000      -0.434077       -11.8118
  33   2.0000      -0.430087       -11.7033
  34   2.0000      -0.405090       -11.0231
  35   2.0000      -0.382235       -10.4011
  36   2.0000      -0.364331        -9.9140
  37   2.0000      -0.359149        -9.7729
  38   2.0000      -0.328291        -8.9332
  39   2.0000      -0.314763        -8.5651
  40   2.0000      -0.296557        -8.0697
  41   2.0000      -0.276180        -7.5152
  42   2.0000      -0.272861        -7.4249
  43   2.0000      -0.250259        -6.8099
  44   2.0000      -0.232211        -6.3188
  45   0.0000      -0.039098        -1.0639
  46   0.0000      -0.027133        -0.7383
  47   0.0000       0.037928         1.0321
  48   0.0000       0.049141         1.3372
  49   0.0000       0.052709         1.4343

MULLIKEN ATOMIC CHARGES
-----------------------
   0 C :    0.023483
   1 C :    0.024241
   2 C :    0.040112
   3 C :   -0.238444
   4 C :   -0.011470
   5 C :    0.035344
   6 P :    0.185239
   7 C :    0.085441
   8 O :   -0.307835
   9 C :    0.086829
  10 O :   -0.308041
  11 H :   -0.006490
  12 H :   -0.006694
  13 H :   -0.006635
  14 H :   -0.013379
  15 H :   -0.009962
  16 H :    0.039110
  17 H :    0.002446
  18 H :    0.172451
  19 H :    0.039072
  20 H :    0.002402
  21 H :    0.172781
Sum of atomic charges:   -0.0000000

LOEWDIN ATOMIC CHARGES
----------------------
   0 C :   -0.014778
   1 C :   -0.020549
   2 C :   -0.023764
   3 C :   -0.200461
   4 C :   -0.043128
   5 C :   -0.023321
   6 P :    0.425561
   7 C :   -0.064628
   8 O :   -0.136807
   9 C :   -0.064159
  10 O :   -0.136868
  11 H :    0.030609
  12 H :    0.031086
  13 H :    0.028773
  14 H :    0.023800
  15 H :    0.030051
  16 H :    0.019116
  17 H :   -0.009652
  18 H :    0.069653
  19 H :    0.018864
  20 H :   -0.009466
  21 H :    0.070067

  Mayer bond orders larger than 0.100000
B(  0-C ,  1-C ) :   1.3856 B(  0-C ,  5-C ) :   1.3737 B(  0-C , 11-H ) :   0.9851
B(  1-C ,  2-C ) :   1.3841 B(  1-C , 12-H ) :   0.9869 B(  2-C ,  3-C ) :   1.3916
B(  2-C , 13-H ) :   0.9867 B(  3-C ,  4-C ) :   1.3271 B(  3-C ,  6-P ) :   0.9035
B(  4-C ,  5-C ) :   1.4039 B(  4-C , 14-H ) :   0.9854 B(  5-C , 15-H ) :   0.9847
B(  6-P ,  7-C ) :   0.9395 B(  6-P ,  9-C ) :   0.9391 B(  7-C ,  8-O ) :   1.0271
B(  7-C , 16-H ) :   0.9523 B(  7-C , 17-H ) :   0.9163 B(  8-O , 18-H ) :   0.9757
B(  9-C , 10-O ) :   1.0272 B(  9-C , 19-H ) :   0.9526 B(  9-C , 20-H ) :   0.9168
B( 10-O , 21-H ) :   0.9759

Dispersion correction           -0.045543375
FINAL SINGLE POINT ENERGY      -802.523429188283

DIPOLE MOMENT
-------------

Method             : SCF
Type of density    : Electron Density
Multiplicity       :   1
Irrep              :   0
Energy             :  -802.4778858133331596 Eh
Relativity type    :
Basis              : AO
                                X                 Y                 Z
Electronic contribution:     -2.789003709       0.540501739       3.445308596
Nuclear contribution   :      3.914493312      -0.609255868      -3.716313921
                        -----------------------------------------
Total Dipole Moment    :      1.125489604      -0.068754130      -0.271005324
                        -----------------------------------------
Magnitude (a.u.)       :      1.159697316
Magnitude (Debye)      :      2.947716318

Rotational constants in cm-1:             0.041914             0.024896             0.019742
Rotational constants in MHz :          1256.550686           746.351508           591.847029

                             ****ORCA TERMINATED NORMALLY****
TOTAL RUN TIME: 0 days 0 hours 2 minutes 26 seconds 234 msec
