                         Program Version 6.0.0  -   RELEASE   -
|  1> ! RIJCOSX M062X def2-TZVP D3ZERO NormalSCF
|  2> %pal
|  3> nprocs 6
|  4> end
|  5>
|  6> * xyz 0 1
|  7>   C          -0.25077182709994      2.13851349836831     -0.49675790556995
|  8>   C          -0.00827592670010      3.47754135318670     -0.83647038435491
|  9>   C           0.80943305500639      4.25886519984658     -0.00106918188547
| 10>   C           1.37597352718764      3.72353490864948      1.16983850672315
| 11>   C           1.12808047279697      2.38414909105656      1.49804549290732
| 12>   C           0.32539529107996      1.58146170302109      0.66223666029815
| 13>   P           0.09516107339165     -0.16077037810526      1.17405035600025
| 14>   O           0.21763941683622     -0.36550440498635      2.67338893662872
| 15>   C          -1.53765487401835     -0.65243088196989      0.50917231904623
| 16>   C          -2.63068439244258     -0.56536607724462      1.39536548819633
| 17>   C          -3.92060159843481     -0.90381033297115      0.96594722849653
| 18>   C          -4.11061580612162     -1.33775128033775     -0.35853292563659
| 19>   C          -3.02910032079989     -1.44770787601938     -1.25024382691173
| 20>   C          -1.74206893122829     -1.10713604396160     -0.80869504609306
| 21>   Cl         -5.71638594792054     -1.76112259029033     -0.90220556714966
| 22>   C           1.32353031386483     -1.11767190368599      0.21191573771119
| 23>   C           1.80698731601969     -0.72255850185981     -1.05129976662168
| 24>   C           2.73348340328242     -1.52092278622309     -1.73791786076265
| 25>   C           3.17992769736045     -2.71544453530043     -1.14563400024538
| 26>   C           2.72191311604590     -3.11430435088587      0.12309976970984
| 27>   C           1.79540918312502     -2.30937083921850      0.79892818006564
| 28>   Cl          4.33431778622774     -3.71445175372565     -1.99577527183371
| 29>   Cl          1.11538167490849      5.92773933432725     -0.41878066581012
| 30>   H          -0.91083453133079      1.53130070153731     -1.13535957346461
| 31>   H          -0.45432202615401      3.92342827237451     -1.73648689127931
| 32>   H           1.99899969613685      4.35909520148568      1.81473504962333
| 33>   H           1.54416645850307      1.94684939910482      2.41891075154822
| 34>   H          -2.45277369349575     -0.24283553283293      2.43297698039229
| 35>   H          -4.77982258647291     -0.84112527743255      1.64843638569261
| 36>   H          -3.20008085022966     -1.80641286837961     -2.27487621766071
| 37>   H          -0.88949380933731     -1.21561930693887     -1.49667303151074
| 38>   H           1.47359957687587      0.22540415481216     -1.50108752997195
| 39>   H           3.11952064411790     -1.22184306667077     -2.72245107743752
| 40>   H           3.09780092890747     -4.04463980495986      0.57161520029261
| 41>   H           1.43676549011202     -2.58908342377022      1.80165568086735
| 42> **                         ****END OF INPUT****

CARTESIAN COORDINATES (ANGSTROEM)
---------------------------------
  C     -0.250772    2.138513   -0.496758
  C     -0.008276    3.477541   -0.836470
  C      0.809433    4.258865   -0.001069
  C      1.375974    3.723535    1.169839
  C      1.128080    2.384149    1.498045
  C      0.325395    1.581462    0.662237
  P      0.095161   -0.160770    1.174050
  O      0.217639   -0.365504    2.673389
  C     -1.537655   -0.652431    0.509172
  C     -2.630684   -0.565366    1.395365
  C     -3.920602   -0.903810    0.965947
  C     -4.110616   -1.337751   -0.358533
  C     -3.029100   -1.447708   -1.250244
  C     -1.742069   -1.107136   -0.808695
  Cl    -5.716386   -1.761123   -0.902206
  C      1.323530   -1.117672    0.211916
  C      1.806987   -0.722559   -1.051300
  C      2.733483   -1.520923   -1.737918
  C      3.179928   -2.715445   -1.145634
  C      2.721913   -3.114304    0.123100
  C      1.795409   -2.309371    0.798928
  Cl     4.334318   -3.714452   -1.995775
  Cl     1.115382    5.927739   -0.418781
  H     -0.910835    1.531301   -1.135360
  H     -0.454322    3.923428   -1.736487
  H      1.999000    4.359095    1.814735
  H      1.544166    1.946849    2.418911
  H     -2.452774   -0.242836    2.432977
  H     -4.779823   -0.841125    1.648436
  H     -3.200081   -1.806413   -2.274876
  H     -0.889494   -1.215619   -1.496673
  H      1.473600    0.225404   -1.501088
  H      3.119521   -1.221843   -2.722451
  H      3.097801   -4.044640    0.571615
  H      1.436765   -2.589083    1.801656

 Total Charge           Charge          ....    0
 Multiplicity           Mult            ....    1
 Number of Electrons    NEL             ....  194
 Basis Dimension        Dim             ....  809

ORBITAL ENERGIES
----------------

  NO   OCC          E(Eh)            E(eV)
   0   2.0000    -102.660076     -2793.5227
   1   2.0000    -102.660038     -2793.5217
   2   2.0000    -102.659989     -2793.5203
   3   2.0000     -78.113375     -2125.5730
   4   2.0000     -19.581378      -532.8364
   5   2.0000     -10.629769      -289.2507
   6   2.0000     -10.629733      -289.2497
   7   2.0000     -10.629716      -289.2493
   8   2.0000     -10.583010      -287.9784
   9   2.0000     -10.583002      -287.9781
  10   2.0000     -10.582973      -287.9773
  11   2.0000     -10.578832      -287.8646
  12   2.0000     -10.578775      -287.8631
  13   2.0000     -10.578771      -287.8630
  14   2.0000     -10.577864      -287.8383
  15   2.0000     -10.577824      -287.8372
  16   2.0000     -10.577723      -287.8345
  17   2.0000     -10.576666      -287.8057
  18   2.0000     -10.576627      -287.8047
  19   2.0000     -10.576586      -287.8035
  20   2.0000     -10.575698      -287.7794
  21   2.0000     -10.575673      -287.7787
  22   2.0000     -10.575581      -287.7762
  23   2.0000      -9.822062      -267.2719
  24   2.0000      -9.822024      -267.2709
  25   2.0000      -9.821981      -267.2697
  26   2.0000      -7.543999      -205.2827
  27   2.0000      -7.543962      -205.2816
  28   2.0000      -7.543915      -205.2804
  29   2.0000      -7.539120      -205.1499
  30   2.0000      -7.539080      -205.1488
  31   2.0000      -7.539037      -205.1476
  32   2.0000      -7.538929      -205.1447
  33   2.0000      -7.538895      -205.1438
  34   2.0000      -7.538850      -205.1425
  35   2.0000      -6.919472      -188.2884
  36   2.0000      -5.036627      -137.0536
  37   2.0000      -5.036623      -137.0535
  38   2.0000      -5.034896      -137.0065
  39   2.0000      -1.077641       -29.3241
  40   2.0000      -1.008981       -27.4558
  41   2.0000      -1.007900       -27.4263
  42   2.0000      -1.007871       -27.4256
  43   2.0000      -0.956410       -26.0252
  44   2.0000      -0.949167       -25.8281
  45   2.0000      -0.949144       -25.8275
  46   2.0000      -0.872450       -23.7406
  47   2.0000      -0.870413       -23.6851
  48   2.0000      -0.870377       -23.6842
  49   2.0000      -0.864290       -23.5185
  50   2.0000      -0.839478       -22.8434
  51   2.0000      -0.839444       -22.8424
  52   2.0000      -0.737779       -20.0760
  53   2.0000      -0.722933       -19.6720
  54   2.0000      -0.719090       -19.5674
  55   2.0000      -0.718998       -19.5649
  56   2.0000      -0.692555       -18.8454
  57   2.0000      -0.692512       -18.8442
  58   2.0000      -0.656410       -17.8618
  59   2.0000      -0.607096       -16.5199
  60   2.0000      -0.607022       -16.5179
  61   2.0000      -0.576692       -15.6926
  62   2.0000      -0.559377       -15.2214
  63   2.0000      -0.557610       -15.1733
  64   2.0000      -0.557536       -15.1713
  65   2.0000      -0.547110       -14.8876
  66   2.0000      -0.547044       -14.8858
  67   2.0000      -0.536822       -14.6077
  68   2.0000      -0.516011       -14.0414
  69   2.0000      -0.514883       -14.0107
  70   2.0000      -0.514819       -14.0089
  71   2.0000      -0.506738       -13.7891
  72   2.0000      -0.506602       -13.7853
  73   2.0000      -0.483298       -13.1512
  74   2.0000      -0.482699       -13.1349
  75   2.0000      -0.482678       -13.1343
  76   2.0000      -0.473966       -12.8973
  77   2.0000      -0.447125       -12.1669
  78   2.0000      -0.440976       -11.9996
  79   2.0000      -0.440958       -11.9991
  80   2.0000      -0.433332       -11.7916
  81   2.0000      -0.433189       -11.7877
  82   2.0000      -0.429462       -11.6862
  83   2.0000      -0.414170       -11.2701
  84   2.0000      -0.414040       -11.2666
  85   2.0000      -0.411988       -11.2108
  86   2.0000      -0.390325       -10.6213
  87   2.0000      -0.390162       -10.6169
  88   2.0000      -0.390128       -10.6159
  89   2.0000      -0.353016        -9.6061
  90   2.0000      -0.352927        -9.6036
  91   2.0000      -0.338263        -9.2046
  92   2.0000      -0.336365        -9.1530
  93   2.0000      -0.336342        -9.1523
  94   2.0000      -0.320182        -8.7126
  95   2.0000      -0.320042        -8.7088
  96   2.0000      -0.311933        -8.4881
  97   0.0000      -0.029106        -0.7920
  98   0.0000      -0.028899        -0.7864
  99   0.0000      -0.018997        -0.5169
 100   0.0000      -0.015508        -0.4220
 101   0.0000      -0.005899        -0.1605

MULLIKEN ATOMIC CHARGES
-----------------------
   0 C :   -0.187957
   1 C :   -0.176798
   2 C :    0.087857
   3 C :   -0.159268
   4 C :   -0.138751
   5 C :   -0.092204
   6 P :    0.631971
   7 O :   -0.590755
   8 C :   -0.095709
   9 C :   -0.139567
  10 C :   -0.159028
  11 C :    0.087710
  12 C :   -0.176022
  13 C :   -0.184191
  14 Cl:   -0.072000
  15 C :   -0.095566
  16 C :   -0.183572
  17 C :   -0.178183
  18 C :    0.089114
  19 C :   -0.160154
  20 C :   -0.138423
  21 Cl:   -0.071880
  22 Cl:   -0.072011
  23 H :    0.198830
  24 H :    0.166982
  25 H :    0.167665
  26 H :    0.191505
  27 H :    0.191074
  28 H :    0.167923
  29 H :    0.167123
  30 H :    0.198496
  31 H :    0.199203
  32 H :    0.166958
  33 H :    0.167898
  34 H :    0.191730
Sum of atomic charges:   -0.0000000

LOEWDIN ATOMIC CHARGES
----------------------
   0 C :   -0.131909
   1 C :   -0.140189
   2 C :   -0.408846
   3 C :   -0.133928
   4 C :   -0.105803
   5 C :   -0.231279
   6 P :    0.681016
   7 O :   -0.301687
   8 C :   -0.231322
   9 C :   -0.105819
  10 C :   -0.133962
  11 C :   -0.408779
  12 C :   -0.140112
  13 C :   -0.131578
  14 Cl:    0.391548
  15 C :   -0.231323
  16 C :   -0.131619
  17 C :   -0.140160
  18 C :   -0.408755
  19 C :   -0.133958
  20 C :   -0.105801
  21 Cl:    0.391549
  22 Cl:    0.391470
  23 H :    0.158509
  24 H :    0.154865
  25 H :    0.155826
  26 H :    0.164506
  27 H :    0.164431
  28 H :    0.155829
  29 H :    0.154867
  30 H :    0.158589
  31 H :    0.158625
  32 H :    0.154882
  33 H :    0.155835
  34 H :    0.164483

  Mayer bond orders larger than 0.100000
B(  0-C ,  1-C ) :   1.4861 B(  0-C ,  5-C ) :   1.3205 B(  0-C , 23-H ) :   0.9132
B(  1-C ,  2-C ) :   1.4051 B(  1-C , 24-H ) :   0.9254 B(  2-C ,  3-C ) :   1.3843
B(  2-C , 22-Cl) :   1.0481 B(  3-C ,  4-C ) :   1.4376 B(  3-C , 25-H ) :   0.9325
B(  4-C ,  5-C ) :   1.4340 B(  4-C , 26-H ) :   0.9067 B(  5-C ,  6-P ) :   0.9220
B(  6-P ,  7-O ) :   1.9488 B(  6-P ,  8-C ) :   0.9219 B(  6-P , 15-C ) :   0.9223
B(  8-C ,  9-C ) :   1.4342 B(  8-C , 13-C ) :   1.3200 B(  9-C , 10-C ) :   1.4384
B(  9-C , 27-H ) :   0.9067 B( 10-C , 11-C ) :   1.3836 B( 10-C , 28-H ) :   0.9320
B( 11-C , 12-C ) :   1.4061 B( 11-C , 14-Cl) :   1.0485 B( 12-C , 13-C ) :   1.4851
B( 12-C , 29-H ) :   0.9252 B( 13-C , 30-H ) :   0.9127 B( 15-C , 16-C ) :   1.3198
B( 15-C , 20-C ) :   1.4324 B( 16-C , 17-C ) :   1.4855 B( 16-C , 31-H ) :   0.9123
B( 17-C , 18-C ) :   1.4057 B( 17-C , 32-H ) :   0.9255 B( 18-C , 19-C ) :   1.3840
B( 18-C , 21-Cl) :   1.0482 B( 19-C , 20-C ) :   1.4381 B( 19-C , 33-H ) :   0.9320
B( 20-C , 34-H ) :   0.9067

Dispersion correction           -0.002593459
FINAL SINGLE POINT ENERGY     -2490.325259676129

DIPOLE MOMENT
-------------

Method             : SCF
Type of density    : Electron Density
Multiplicity       :   1
Irrep              :   0
Energy             : -2490.3226662173469776 Eh
Relativity type    :
Basis              : AO
                                X                 Y                 Z
Electronic contribution:     -0.397637331       0.675607454      -4.971079248
Nuclear contribution   :      0.317249258      -0.542597211       3.988247416
                        -----------------------------------------
Total Dipole Moment    :     -0.080388073       0.133010243      -0.982831832
                        -----------------------------------------
Magnitude (a.u.)       :      0.995043907
Magnitude (Debye)      :      2.529200613

Rotational constants in cm-1:             0.004743             0.004736             0.002765
Rotational constants in MHz :           142.201137           141.976555            82.890725

                             ****ORCA TERMINATED NORMALLY****
TOTAL RUN TIME: 0 days 0 hours 3 minutes 0 seconds 150 msec
